TITLE : Created by VMD with 138 atoms                                           
   138
  -1.0520000   7.5630002  -0.5160000  -1.1260000   8.5679998  -0.4420000
  -1.9030000   7.2379999  -0.9530000  -0.2550000   7.2389998  -1.0460000
  -0.9530000   6.8889999   0.8150000  -0.1000000   7.2770000   1.3720000
  -1.8810000   7.0200000   1.3700000  -0.9000000   5.3740001   0.6180000
  -0.7440000   4.9109998  -0.4710000  -1.0230000   4.5939999   1.6900001
  -1.0910000   5.0060000   2.6099999  -0.8800000   3.1429999   1.7160000
  -0.0460000   2.8150001   1.0960000  -0.4620000   2.7320001   3.0890000
  -1.1030000   3.1050000   3.8880000  -0.4950000   1.6470000   2.9909999
   0.9440000   3.1559999   3.5560000   2.0250001   2.2370000   3.4260001
   1.8710001   1.2620000   2.9879999   3.2930000   2.4719999   3.9579999
   4.0450001   1.6990000   3.8959999   3.4570000   3.6640000   4.7550001
   4.6490002   3.8380001   5.3530002   4.6300001   4.4540000   6.0900002
   2.4080000   4.6339998   4.8429999   2.6280000   5.5320001   5.4020000
   1.1280000   4.3850002   4.2519999   0.3670000   5.1399999   4.3829999
  -2.1580000   2.3850000   1.3760000  -3.2679999   2.6159999   1.8390000
  -2.1170001   1.5150000   0.3200000  -1.2539999   1.4920000  -0.2040000
  -3.1040001   0.4780000  -0.0660000  -4.0780001   0.9670000  -0.1000000
  -2.7720001   0.0770000  -1.5039999  -2.7770000   0.9870000  -2.1050000
  -1.7670000  -0.3300000  -1.6100000  -3.8629999  -0.9040000  -2.0260000
  -4.8969998  -1.1440001  -1.3590000  -3.7200000  -1.5070000  -3.0920000
  -3.1630001  -0.7500000   0.8840000  -2.0999999  -1.3690000   0.9940000
  -4.3220000  -1.1100000   1.5300000  -5.5440001  -0.2540000   1.6569999
  -6.1230001  -0.4210000   0.7490000  -5.2210002   0.7850000   1.7250000
  -6.2820001  -0.6780000   2.9489999  -7.3720002  -0.6840000   2.9200001
  -5.9660001  -0.1470000   3.8460000  -5.8670001  -2.1650000   3.0950000
  -6.5939999  -2.7760000   2.5599999  -5.7719998  -2.5009999   4.1269999
  -4.5130000  -2.2440000   2.4649999  -3.7750001  -2.0300000   3.2379999
  -4.2309999  -3.5680001   1.8990000  -3.7590001  -4.4410000   2.5790000
  -4.4380002  -3.7820001   0.6080000  -4.7490001  -2.9430001   0.1390000
  -4.3600001  -5.1570001  -0.0210000  -4.7630000  -5.9320002   0.6310000
  -5.0669999  -5.0819998  -1.3200001  -5.9850001  -4.5009999  -1.2380000
  -4.3699999  -4.6859999  -2.0590000  -5.3810000  -6.4730000  -1.9990000
  -5.8460002  -6.3520002  -2.9770000  -4.4660001  -7.0430002  -2.1640000
  -6.2909999  -7.3350000  -1.0710000  -7.1739998  -6.8429999  -0.3190000
  -6.2049999  -8.5679998  -1.3040000  -2.8940001  -5.5850000  -0.2290000
  -2.5090001  -6.7620001  -0.2480000  -2.0799999  -4.5250001  -0.3910000
  -2.5120001  -3.6210001  -0.2610000  -0.6240000  -4.6609998  -0.7730000
  -0.3660000  -5.7040000  -0.9570000  -0.2900000  -3.9649999  -2.0730000
   0.7150000  -4.2700000  -2.3650000  -1.1240000  -4.3800001  -3.2750001
  -0.7110000  -3.9670000  -4.1950002  -2.1980000  -4.2430000  -3.1530001
  -1.1350000  -5.4650002  -3.3800001  -0.3680000  -2.5699999  -1.8520000
  -0.3040000  -2.1500001  -2.7130001   0.3530000  -4.2470002   0.3260000
   1.4870000  -4.6970000   0.4570000  -0.1240000  -3.3780000   1.1880000
  -1.0150000  -2.9089999   1.1030000   0.7630000  -2.8250000   2.2379999
   0.1280000  -2.3650000   2.9949999   1.2450000  -3.6619999   2.7420001
   1.8930000  -1.8590000   1.8660001   2.8399999  -1.7410001   2.6099999
   1.8609999  -1.1930000   0.7270000   1.0860000  -1.3279999   0.0940000
   2.7909999  -0.1750000   0.2060000   3.2479999   0.3300000   1.0570000
   3.8980000  -0.9340000  -0.6500000   4.2199998  -1.8300000  -0.1200000
   3.5450001  -1.3890001  -2.0490000   2.5829999  -1.9020000  -2.0620000
   4.3260002  -2.0980000  -2.3230000   3.5539999  -0.4860000  -2.6589999
   5.0689998  -0.2000000  -0.8060000   5.6789999  -0.4150000  -0.0980000
   2.0660000   0.9600000  -0.5560000   0.8790000   0.9460000  -0.6550000
   2.8020000   1.9260000  -1.1020000   3.8039999   1.9670000  -0.9840000
   2.2290001   3.1580000  -1.8329999   1.7079999   3.7650001  -1.0930001
   3.3640001   3.8789999  -2.6359999   3.7330000   3.2509999  -3.4470000
   2.8480000   4.7270002  -3.0869999   4.4899998   4.2900000  -1.7670000
   5.7010002   3.6860001  -1.6920000   6.0380001   2.9340000  -2.3900001
   6.4400001   4.1980000  -0.6350000   7.3720002   3.9100001  -0.3720000
   5.6799998   5.0770001   0.1320000   5.9400001   5.7700000   1.2990000
   6.8920002   5.8750000   1.7990000   4.9980001   6.6630001   1.7550000
   5.2919998   7.2249999   2.6289999   3.7690001   6.8290000   1.0860000
   2.9470000   7.4190001   1.4620000   3.5620000   6.1050000  -0.1260000
   2.5890000   6.1939998  -0.5870000   4.4829998   5.2519999  -0.7000000
   1.1750000   2.7100000  -2.9540000   1.4940000   1.8000000  -3.7190001
  -0.0180000   3.3399999  -3.0039999  -0.1950000   3.9970000  -2.2579999
  -0.8610000   3.2579999  -4.2040000  -0.6410000   2.3299999  -4.7309999
  -1.9210000   3.2130001  -3.9570000  -0.7540000   4.4619999  -5.1370001
  -1.4760000   5.4600000  -4.9060001   0.1150000   4.4480000  -6.0900002
   0.0000000   0.0000000   0.0000000  90.0000000  90.0000000  90.0000000
