TITLE : Created by VMD with 138 atoms                                           
   138
  -6.4829998   3.5520000  11.7969999  -7.1840000   3.3090000  12.4820004
  -6.5809999   4.4670000  11.3830004  -5.5300002   3.6090000  12.1289997
  -6.6560001   2.5339999  10.7370005  -6.3880000   1.5380000  11.0880003
  -7.7170000   2.4150000  10.5170002  -5.8870001   2.8399999   9.4340000
  -5.4369998   3.9820001   9.2550001  -5.7490001   1.8160000   8.5769997
  -6.1259999   0.8830000   8.6619997  -4.8030000   1.9090000   7.4850001
  -4.6880002   2.9510000   7.1859999  -3.4150000   1.5420001   8.0159998
  -3.4519999   0.5390000   8.4410000  -2.6910000   1.4360000   7.2080002
  -2.7860000   2.5120001   8.9809999  -2.2040000   3.7170000   8.5139999
  -2.1880000   3.9560001   7.4610000  -1.6840000   4.7059999   9.4729996
  -1.3120000   5.6560001   9.1190004  -1.7210000   4.3899999  10.8400002
  -1.4170001   5.3490000  11.7250004  -1.2970001   4.9369998  12.5839996
  -2.3540001   3.2219999  11.2959995  -2.4210000   3.0409999  12.3590002
  -2.8829999   2.3039999  10.3629999  -3.3280001   1.4290000  10.8129997
  -5.1650000   1.0170000   6.2789998  -5.9410000   0.0210000   6.3319998
  -4.6589999   1.2810000   5.0660000  -4.0089998   2.0520000   5.1149998
  -5.0860000   0.6750000   3.7430000  -6.1129999   0.3120000   3.7340000
  -5.0679998   1.7070000   2.6489999  -5.7570000   2.5120001   2.9080000
  -4.0890002   2.1480000   2.4649999  -5.5990000   1.2550000   1.2359999
  -5.0139999   0.3000000   0.6610000  -6.6690001   1.7170000   0.7720000
  -4.1700001  -0.4580000   3.3000000  -2.9470000  -0.3230000   3.3650000
  -4.6090002  -1.7160000   2.8399999  -5.9299998  -2.1900001   3.0620000
  -6.6320000  -1.9640000   2.2600000  -6.3099999  -1.8590000   4.0289998
  -5.7969999  -3.7340000   3.1550000  -6.1170001  -4.2249999   2.2360001
  -6.4180002  -4.0549998   3.9909999  -4.3439999  -4.0689998   3.3510001
  -3.9560001  -4.9600000   2.8580000  -4.1220002  -4.0960002   4.4180002
  -3.7320001  -2.8239999   2.6150000  -2.7869999  -2.6550000   3.1320000
  -3.4749999  -3.1059999   1.1240000  -2.7570000  -4.0489998   0.7300000
  -3.8550000  -2.1880000   0.1420000  -4.4569998  -1.4210000   0.4080000
  -3.7430000  -2.4170001  -1.2930000  -3.4800000  -3.4619999  -1.4630001
  -5.0100002  -1.9730000  -2.0060000  -5.7770000  -1.8190000  -1.2470000
  -4.7350001  -1.0010000  -2.4150000  -5.6110001  -3.0660000  -2.9040000
  -6.3020000  -2.6320000  -3.6270001  -4.6970000  -3.4730000  -3.3369999
  -6.3039999  -4.1869998  -2.1580000  -7.2849998  -3.8580000  -1.4560000
  -5.8990002  -5.3779998  -2.4530001  -2.5150001  -1.6830000  -1.8980000
  -2.3130000  -1.6820000  -3.0999999  -1.8789999  -0.8620000  -1.0570000
  -2.1559999  -1.0340000  -0.1020000  -0.9890000   0.2510000  -1.4760000
  -0.5750000   0.0650000  -2.4670000  -1.8090000   1.5860000  -1.6140000
  -1.0800000   2.3239999  -1.9470000  -2.8670001   1.6289999  -2.7049999
  -3.3680000   2.5960000  -2.7570000  -3.7210000   1.0130000  -2.4240000
  -2.4740000   1.4130000  -3.6989999  -2.4389999   1.8830000  -0.4370000
  -3.0400000   1.1540000  -0.2680000   0.1050000   0.5450000  -0.4270000
  -0.0850000   0.3630000   0.7640000   1.3720000   0.8500000  -0.8950000
   1.5800000   0.9900000  -1.8730000   2.6129999   0.8270000  -0.0820000
   2.5360000   1.4160000   0.8320000   2.7730000  -0.2000000   0.2490000
   3.9080000   1.1750000  -0.8560000   4.7179999   1.8160000  -0.3050000
   3.9590001   0.8550000  -2.1740000   3.1640000   0.4450000  -2.6410000
   5.0240002   1.1650000  -3.0250001   5.5139999   2.1080000  -2.7839999
   6.1069999   0.0680000  -2.8510001   6.4109998   0.0630000  -1.8040000
   5.6370001  -1.3559999  -3.2119999   5.0300002  -1.8090000  -2.4280000
   6.4870000  -2.0039999  -3.4260001   4.9679999  -1.3329999  -4.0730000
   7.2610002   0.2700000  -3.6919999   7.9980001   0.4990000  -3.1220000
   4.5460000   1.3870000  -4.4870000   3.5090001   0.8640000  -4.8969998
   5.4200001   1.9110000  -5.4340000   6.3610001   2.1389999  -5.1469998
   5.0320001   2.5309999  -6.7220001   4.0760002   2.0530000  -6.9349999
   4.9109998   4.0359998  -6.4899998   5.8660002   4.5430002  -6.6250000
   4.0460000   4.3759999  -7.0599999   4.6750002   4.5159998  -5.0840001
   5.6780000   5.1230001  -4.2480001   6.7220001   5.2220001  -4.5070000
   5.1750002   5.4120002  -2.9700000   5.6300001   5.7010002  -2.1170001
   3.7909999   5.0679998  -2.9619999   2.8469999   5.0960002  -1.9420000
   3.0239999   5.6190000  -1.0130000   1.5690000   4.4990001  -2.1220000
   0.9060000   4.2930002  -1.2950000   1.2720000   4.0139999  -3.4240000
   0.2820000   3.6270001  -3.6150000   2.1700001   4.0219998  -4.4299998
   1.8020000   3.7939999  -5.4190001   3.4630001   4.5609999  -4.3189998
   6.0900002   2.3180001  -7.7870002   7.3189998   1.9230000  -7.5570002
   5.7280002   2.7340000  -8.9860001   4.7810001   2.9930000  -9.2189999
   6.6110001   2.9110000 -10.1549997   7.6300001   2.9870000  -9.7760000
   6.7259998   2.0000000 -10.7419996   6.4200001   4.0409999 -11.0520000
   5.3330002   4.0689998 -11.6389999   7.3330002   4.9460001 -11.1499996
   0.0000000   0.0000000   0.0000000  90.0000000  90.0000000  90.0000000
