
 1164  0.0000000e+00
  11.2356966  13.0681929  10.4566032  11.8141419  12.1446240  10.4339051
  12.4572530  12.1766746   9.5544280  11.2114874  11.2364907  10.4194993
  12.6557566  12.2412711  11.7241532  12.2938529  11.5722334  12.6961354
  13.6851060  13.0240036  11.6811978  13.7183551  13.6536706  10.8922022
  14.3413847  13.3622718  12.9612543  13.9478770  12.7503247  13.7729024
  15.8453797  12.9916845  12.9522146  16.3215107  13.3240346  12.0297487
  16.3174593  13.4328210  13.8300779  15.9925946  11.9157653  13.0461468
  14.0871893  14.8770846  13.1259605  13.4860659  15.5580801  12.2961657
  14.6644348  15.4329949  14.2210263  15.1089678  14.7445209  14.8113602
  14.5956661  16.8806866  14.5627345  13.9220014  17.0322422  15.4061249
  15.5998769  17.1819637  14.8608819  14.2744668  17.4412944  13.6848670
   7.7910489  24.8663700  23.6447912   3.0795740  17.4631615   6.8122316
  23.7884362  22.2289885  20.7477452  23.7897573  22.0397279  19.8094432
  24.2273358  21.4765230  21.1444752  16.6004856  20.6848652  15.6171300
  15.8463878  20.4881483  15.0613686  17.0395345  21.4123512  15.1764123
  11.7624808  23.8319158  20.3938410  11.6119786  24.7482645  20.6259746
  12.6745904  23.8047560  20.1047906  22.2778040  24.7753814  20.8116374
  22.5891183  23.8876582  20.9884501  21.3331495  24.7318796  20.9598513
  25.3308927  20.1496849  21.2772321  26.2773455  20.0743125  21.3987967
  25.2022452  20.0539563  20.3335596  18.8463285  19.1709991  16.4686751
  19.1499772  19.9867641  16.8668669  17.9316682  19.3405322  16.2430941
  20.8640971  21.9310785  22.9462683  20.5238834  21.6229613  23.7862387
  21.6170566  21.3665898  22.7712356  22.5953499  25.0949637  17.9989356
  23.2703807  25.7452347  17.8047377  22.6099058  25.0120437  18.9524262
  14.4930236  27.4601833  16.8407878  14.4912050  28.4092647  16.7163968
  15.3493391  27.2705111  17.2241677  22.4069246  15.8395747  20.4598091
  22.3264855  15.2060039  19.7468227  21.6918781  15.6200575  21.0570968
  23.7992153  21.9837364  17.9122464  23.2464261  21.4316080  17.3592454
  23.5854386  22.8783539  17.6473109  23.5759538  19.2935404  15.1184948
  22.6564521  19.4987614  15.2877072  23.9936305  20.1464571  14.9988658
  19.6748089  24.1325404  21.3082059  19.1895699  23.6900183  20.6118230
  19.9431041  23.4280915  21.8981223  16.4043406  22.9262161  17.5167033
  16.1887164  23.5611850  16.8336568  16.1884530  22.0771105  17.1311595
  19.4644963  16.8091807  20.9866540  19.8450340  17.3369390  20.2845898
  19.7754118  17.2222306  21.7922303  22.0895027  16.4975797  17.0189869
  21.2978528  16.7134649  17.5118519  22.3933265  15.6747592  17.4022482
  20.6449268  18.1095512  23.2898736  21.5376368  18.4240469  23.1470694
  20.4665172  18.3047215  24.2098249  18.0679451  22.3653087  19.7080381
  17.5910015  21.5634265  19.9219108  17.4920884  22.8322308  19.1025593
  25.8098625  20.3832458  18.5883937  25.3274415  21.0955614  18.1687411
  25.4662859  19.5883887  18.1804854  13.5417109  16.7000380  22.1943225
  12.8121783  17.1431541  22.6275225  13.7478999  15.9617138  22.7675549
  22.7690471  19.9031190  22.5933804  22.3862343  19.5495725  21.7904538
  23.7141854  19.8322642  22.4594954  16.7803302  19.9885004  20.6675446
  16.7702569  19.8530697  21.6150618  16.3484956  19.2126255  20.3100968
  21.3884768  20.6236844  16.5884977  21.0160109  21.1233198  17.3150412
  21.2288061  21.1674872  15.8171251  21.7044410  22.3260398  14.2928887
  21.4121137  22.1520661  13.3981766  22.6579465  22.2527278  14.2518469
  15.1093140  17.7754875  20.1971973  14.7419037  17.4282340  21.0100050
  15.1285018  17.0251107  19.6032291  17.0208608  26.7839465  17.5890130
  17.3127639  26.8423841  18.4987434  17.7109001  26.2889241  17.1473905
  24.5554666  18.0890687  17.3255877  23.8953173  17.8352078  17.9705601
  24.0713725  18.1610242  16.5029657  18.4799842  26.6022667  20.4678785
  18.7705095  25.7629348  20.8247383  18.6586447  27.2335820  21.1648386
  13.9565578  23.5259659  13.6064965  14.6078556  23.8094718  14.2481097
  13.4864184  24.3263221  13.3727643  19.6163197  25.5031649  17.4408310
  20.5575134  25.3456500  17.3661623  19.4182675  25.3382399  18.3626808
  17.4762057  15.2315619  18.6672242  17.7864200  14.9480897  19.5272488
  16.5254254  15.1294670  18.7099484  15.6324490  24.9140449  15.3395186
  15.5152284  25.7467861  15.7967202  16.3006033  25.0956568  14.6785959
  20.5179877  21.7222034  18.9907763  19.6143554  21.9468047  19.2126655
  21.0242831  21.9760960  19.7624209  20.0967853  18.7332320  13.5061337
  20.6054722  17.9564687  13.7387457  19.6591052  18.9852506  14.3192479
  17.9228396  25.5254234  13.7379130  18.8405985  25.6223949  13.9919740
  17.9529210  25.0466234  12.9096150  17.7503869  22.7317030  14.2192228
  18.2823940  22.3119095  13.5432245  17.6286702  23.6279753  13.9059932
  22.3206249  25.6065844  13.0689341  21.9615587  25.4849578  13.9478598
  21.5669728  25.8578294  12.5349713  24.8701573  24.3123365  12.7165584
  24.1294711  24.8816885  12.9250152  25.5829032  24.6349880  13.2680301
  20.3162371  24.9387735  14.8818793  19.8904508  25.1305116  15.7174476
  20.4899264  23.9979428  14.9119031  24.4380887  21.7319781  13.8979851
  24.7957016  21.2315732  13.1645412  24.6240802  22.6448966  13.6783974
  18.6550256  20.9089190  12.4020743  19.1201881  20.1067900  12.6396553
  18.4000745  20.7764474  11.4890118  22.0083975  16.7195856  14.0077714
  21.5708160  15.8728362  13.9196254  22.1366935  16.8259165  14.9503560
  13.8482371  23.9497787  18.4812897  13.3133014  23.6243107  17.7573103
  14.7457876  23.7256331  18.2355385  14.0282335  20.9945610  14.6466122
  13.3465400  20.9348253  15.3159085  13.7678455  21.7398796  14.1053820
  22.1035997  18.6369776  20.1766910  21.3408695  18.7961392  19.6206856
  22.3627225  17.7376142  19.9761099  19.9215761  17.5006467  18.2335978
  19.1595412  17.0251359  18.5643913  19.5528789  18.1856546  17.6758717
  23.3222496  25.4380748   3.3890427  23.0354531  24.9781475   4.1779955
  23.6245226  24.7437500   2.8035720  19.1262142  24.7911034   4.0852577
  18.6390367  24.1480023   4.6003412  20.0100559  24.7719922   4.4522598
  15.1495122  22.3625876   4.0996114  15.6084979  21.5269745   4.1851382
  14.3155685  22.1367114   3.6876046  21.7795776  27.6012265   3.4781774
  22.3471072  26.8404628   3.3541588  22.1604746  28.2779609   2.9185525
  14.4506035  18.6095941   6.6323280  14.2332231  17.8685624   7.1978805
  13.9287686  19.3345765   6.9763059  24.5406365  18.7335728   5.2007573
  24.0427476  17.9959913   5.5533365  25.1849187  18.9340343   5.8796884
  16.1166940  19.7917918   4.8121015  16.9329299  20.0943173   5.2101833
  15.6198788  19.4172451   5.5395087  21.2077444  20.9889029   5.0116766
  21.5190624  21.8239901   5.3608790  21.6840012  20.8810849   4.1883986
  19.9056725  16.1634648   7.3611557  19.0961888  16.5021494   6.9787153
  19.6249827  15.4232111   7.8991794  20.5102829  27.0533358   5.8370146
  19.8732245  27.0185896   5.1234452  21.1821587  27.6614899   5.5288533
  17.5180437  17.6778032   6.4370130  17.8294587  18.5827464   6.4551886
  17.7364716  17.3669395   5.5584432  18.6915423  20.1339990   5.9851598
  19.4899540  20.0491797   5.4640299  18.9557745  20.6517626   6.7456426
  17.7478130  28.6218567  11.1645341  16.9811816  28.6325663  11.7375903
  17.7447166  29.4818486  10.7442531  18.0016967  24.4003796   8.6118083
  18.3652184  25.2303711   8.3032665  17.1487441  24.3379304   8.1819202
  16.1666286  26.6613395   5.2738628  16.6153209  27.1064454   4.5549832
  16.6022683  25.8114717   5.3384740  14.4053686  27.1821294   7.3088580
  14.8757436  27.1703437   6.4752871  15.0275272  26.8205945   7.9400814
  18.4896416  16.7083645   4.2247219  18.0195107  17.0861574   3.4814311
  19.3405653  17.1466702   4.2177314  22.7502727  20.4784068   8.2307248
  22.1907956  20.6472543   8.9888196  22.3078118  19.7728117   7.7589243
  21.0443452  17.8309837   4.3141810  21.5804002  18.3557388   3.7196148
  21.6036164  17.0911587   4.5510493  20.9976597  22.3873232  11.6151781
  21.0526825  21.4942424  11.2751619  20.0593785  22.5481782  11.7151069
  16.8291964  18.1009236   8.8801054  15.9656955  17.7235014   9.0478871
  17.0589005  17.7930674   8.0033544  23.2820668  17.9910930  11.9323221
  22.6339039  17.4344855  12.3639524  23.8803522  18.2498495  12.6332726
  12.4984045  17.5904514   3.0908543  12.1027529  18.2580439   3.6512220
  13.2567046  17.2807302   3.5861175  24.3770264  23.2887776   2.0781050
  24.3774641  22.5948165   1.4188253  25.1812472  23.1456206   2.5770709
  22.8337124  19.4968954   3.1400762  23.3027607  20.0669661   2.5307775
  23.4696183  19.3094883   3.8305356  16.8134382  18.2421062   2.7569187
  16.6782649  18.9521646   3.3844353  15.9939440  17.7477828   2.7743908
  15.9841855  26.3538292   9.3665412  15.6652907  25.7431547  10.0310820
  16.6372795  26.8845485   9.8226521  21.5891681  24.5994676   5.5554274
  22.0459363  24.1787661   6.2838537  21.2452761  25.4123532   5.9258154
  19.4245108  22.0623782   8.1594099  18.8003801  22.7881123   8.1611193
  20.2746942  22.4779724   8.0155295  22.8944614  26.5493181   8.7383351
  23.0482339  25.8950851   9.4199251  23.6159498  26.4265815   8.1213893
  17.6532256  26.9144292   2.7082720  17.5336542  26.6578511   1.7938857
  18.1902063  26.2170345   3.0844690  15.6459846  23.1478899   8.4084934
  15.9087632  22.9205867   9.3004085  15.0295208  22.4599016   8.1577418
  18.3834661  24.2181098  11.3580747  17.8029283  24.3848778  10.6155142
  19.1735459  24.7217510  11.1622398  22.4379378  23.1238082   7.6140201
  22.6129156  23.3622463   8.5243837  22.8139352  22.2486779   7.5191268
  14.8563508  24.5760786  11.2548466  14.9486471  23.7210409  11.6751128
  14.0335266  24.9242224  11.5983407  19.8718328  26.5540372  11.3859018
  19.4316184  27.3897482  11.5409188  19.9496681  26.4973587  10.4335568
  15.6134113  21.7124180  11.1442200  15.6033717  21.7267096  12.1012606
  16.4889531  21.3982057  10.9185451  17.7792444  20.6440681   9.9237410
  17.5597710  19.9620192   9.2890186  18.3832703  21.2209420   9.4561932
  19.3052572  17.6613768   9.8611248  19.9209113  17.7161871   9.1302365
  18.4902987  18.0256859   9.5156494  21.3345050  18.2625699   7.0058152
  21.3208570  18.4529189   6.0678318  21.0348434  17.3557951   7.0705784
  20.3497197  26.5262570   8.7333854  21.3068047  26.5230639   8.7478801
  20.1245070  26.8314594   7.8545438  23.1175779  23.6881553  10.2828265
  22.2819022  23.4233942  10.6672475  23.6362834  23.9960083  11.0260647
  21.1900770  19.7563513  10.7035554  21.9889047  19.4213345  11.1108268
  20.5212375  19.1058513  10.9174136  16.9737320  23.7348828   5.5855812
  16.6212885  23.4671495   6.4343063  16.3272591  23.4275946   4.9500667
  14.0413120  20.3613916   9.4384573  13.5025579  19.9886375  10.1363328
  14.8395032  20.6505779   9.8806042  14.8468766  16.8711312   4.2363390
  15.2671032  16.2100801   4.7864780  14.6537613  17.5930074   4.8345305
  14.0746748  16.2930779   8.0076877  14.2412019  15.4115250   7.6739737
  13.1263717  16.4013713   7.9353988  23.3720950  17.2414421   9.3790124
  23.5238669  17.5039462  10.2869159  23.3885162  18.0620413   8.8864891
  21.4620473  15.1488154   4.9318727  21.1505073  15.3644616   5.8108900
  21.9923060  14.3610548   5.0522499  18.4281174  15.2309234  11.2764274
  18.7703736  16.0860776  11.0160356  18.5442138  14.6805371  10.5019415
  22.5784927   5.3954685  21.8000397  22.1898875   4.5986056  22.1609101
  23.3308348   5.0874440  21.2947337  16.9086993  11.6837913  20.8037862
  17.6077954  11.4054219  20.2121723  17.3396240  12.2723222  21.4235984
  16.2774311   3.1486253  16.4731101  15.6974466   2.3899809  16.4074699
  17.1576458   2.7867703  16.3705673  13.5305616   4.1627630  21.5591799
  13.8172014   4.3828038  22.4455497  14.0119197   4.7676511  20.9947008
  23.4654256  12.7433780  20.4089583  23.0831222  13.2177666  19.6706959
  23.4177821  13.3594186  21.1400232  22.5135845   8.1734771  22.1109204
  22.6836412   7.2644521  22.3578741  22.6874366   8.2026119  21.1700918
  22.1953522   3.1488911  19.4668164  21.6473075   3.5676026  18.8030698
  23.0636612   3.5297190  19.3355098  24.6470284   7.8041341  18.9337599
  24.6163697   8.3840294  18.1728307  24.6528641   8.3960961  19.6859426
  15.3750862   8.6537882  16.3216984  15.8149313   8.7064612  15.4731739
  15.2183276   9.5655851  16.5672285  24.5763839   5.1676159  19.4633673
  25.1782209   4.8814055  18.7762664  24.6395531   6.1226883  19.4545282
  20.9182290   6.7071398  19.4803126  20.0351738   6.4184234  19.7107212
  21.4619955   6.4250335  20.2158164  19.9539796   9.9723439  21.9827305
  19.2040030   9.3781156  21.9570434  20.7003664   9.4074865  22.1829173
  23.6635004   9.9771506  20.4301165  23.2255881   9.8918477  21.2769860
  23.8068798  10.9180604  20.3283172  16.4849474   5.1734884  18.1760943
  16.9765244   5.7686230  17.6100566  16.4323378   4.3578621  17.6778795
  15.6095955   9.1126815  19.7483886  15.1267524   8.9553739  18.9370017
  16.1044754   9.9147351  19.5809496  19.2055114  13.1560262  17.7125080
  19.4083379  12.6036064  18.4674422  18.6443207  13.8467098  18.0650035
  18.3045459   5.5738644  20.3924780  18.0721900   4.9316751  21.0631758
  17.7748764   5.3297926  19.6334583  14.4014109   1.4659275  13.2108550
  14.0611080   2.3545655  13.3145291  13.7719010   1.0342511  12.6332698
  18.7647268   2.3252366  15.6160414  19.0378010   1.4161048  15.4929901
  19.5552042   2.8377706  15.4466714  21.3905632   3.7278542  13.9771001
  20.9810961   3.2240813  13.2736930  22.3243624   3.5323444  13.8994682
  19.3389600   8.7373932  18.2767070  18.6604068   8.1452294  17.9524549
  19.9927900   8.1597276  18.6704590  17.7775743   8.2079724  21.4973887
  17.9430233   7.3158575  21.1924468  16.8460303   8.3497554  21.3289992
  24.7169511   9.2756125  16.0254997  24.5472498   9.9715677  15.3906141
  24.0755120   9.4236916  16.7203812  22.3244076   9.7703822  17.5755839
  22.6372050  10.3392391  18.2789980  22.0913471  10.3709539  16.8676092
  13.7623022   4.1005934  13.4318096  14.6217811   4.4053161  13.7227941
  13.4144384   4.8254305  12.9123543  22.2461500   6.9484329  17.1076243
  22.3679492   7.8949938  17.0340080  21.6564068   6.8401427  17.8537530
  21.6783867  11.0196785  15.3588752  20.8921914  11.5300493  15.1648380
  21.6522047  10.2933336  14.7360032  17.5771277   7.1098418  16.7487506
  16.8287802   7.7021613  16.6755017  18.2420287   7.4920000  16.1759559
  24.1376289  11.4090949  14.3443514  23.8969276  11.5324148  13.4261537
  23.3070632  11.4550325  14.8179357  22.2034943  14.0195649  18.1820535
  22.9250314  13.9804254  17.5542922  21.4697087  13.6033122  17.7298101
  18.5048633   6.6604790  13.5178747  19.3925252   6.6921992  13.8746409
  18.6264000   6.7008850  12.5692820  16.4794134   4.7570781  14.1611733
  16.5149773   4.2452667  14.9692675  17.0546200   5.5043321  14.3254312
  18.6900366  14.3273304  21.0402564  19.2509333  13.8982049  21.6863818
  18.9805332  15.2393841  21.0389970  14.3975465  11.1369619  17.4619813
  13.4648041  10.9572145  17.3440227  14.5348958  11.9814056  17.0327008
  19.8010503  12.3132717  13.8780380  20.4371630  13.0230810  13.7899288
  19.6676225  11.9988607  12.9838486  21.2882190   9.0070089  13.5528447
  21.2949687   8.1502810  13.9796979  20.9832417   8.8289404  12.6631749
  24.9234052   6.9705212  14.4820848  24.8574827   7.8267761  14.9048300
  25.8641851   6.8036572  14.4244520  21.0771983   6.3839492  14.7810515
  21.4362235   6.6199509  15.6364088  21.4648802   5.5308594  14.5856740
  23.8846799   4.9113694  12.9870281  24.7048331   5.0341291  12.5090003
  23.9743719   5.4650246  13.7626911  20.1690233   2.2847026  11.8022128
  20.5249513   1.3973959  11.7549481  19.4013873   2.2655986  11.2307219
  24.2619943  13.8915385  16.0454919  24.7484632  14.6958425  15.8647300
  24.5097883  13.2974121  15.3370826  16.7214806   8.7873606  13.8158934
  17.5530505   9.1655400  14.1017320  16.8766851   7.8428354  13.8119605
  14.3536040  12.5360843  20.1490423  14.0840420  11.8791089  19.5072077
  15.2501364  12.2922594  20.3792831  19.4413024  11.0453491  19.6781312
  19.8411337  10.7478605  20.4953627  19.4126297  10.2632990  19.1269440
  14.2579494   5.8154219  19.5977353  13.6552796   5.5442929  18.9052687
  15.1283405   5.6996546  19.2166196  14.4792458   0.6702468  15.7527629
  13.5920264   1.0116719  15.8645775  14.6782798   0.8187159  14.8283311
  19.8691157  12.4924010  22.9519174  20.2662376  11.6787620  22.6412445
  19.2306860  12.2121544  23.6077385  14.6682625  15.1384869  18.4702578
  14.2596854  14.7369308  19.2371015  14.0310587  15.0144353  17.7668273
  15.5254831  13.3659247  16.3883312  16.3448101  12.8780136  16.3053970
  15.7448531  14.1085378  16.9510339  17.8018226  11.9252943  15.7468302
  18.2789759  12.2734820  14.9936224  18.3124006  12.2082168  16.5054453
  18.9488526   9.5082654  15.5875284  18.5705567  10.3872477  15.5648521
  19.3371785   9.4370635  16.4595176  23.1862530   5.4394630   3.4541835
  22.4952145   5.5862355   4.1000593  23.9303505   5.1239842   3.9670420
  17.5454789   7.3867911   4.5732175  16.8899944   6.6900161   4.6060289
  18.0773219   7.2524348   5.3576429  17.2358079  10.0884822   3.9761502
  17.3189246   9.1926443   4.3029496  18.1380616  10.3816375   3.8487528
  14.6552421   3.1421154   3.5564739  14.8759763   2.2495470   3.2903350
  13.7597838   3.0784779   3.8886435  22.8595885   7.3212749   1.3584821
  23.0272241   6.7489505   2.1071976  23.6554347   7.2633375   0.8298008
  19.1646432   3.8745862   4.2032571  19.9585359   4.3566737   4.4346831
  18.6969285   4.4567193   3.6044284  20.9355443   8.1890563   6.1662387
  20.1635964   8.3345042   6.7132060  20.8584113   8.8370123   5.4659278
  18.5426808   9.8568649   7.2542270  18.9496454  10.6585417   6.9257063
  17.6020903  10.0166830   7.1768989  21.1551255   8.7206743   3.2048852
  20.3140276   8.4311892   2.8513536  21.8046832   8.1936394   2.7395458
  19.2203553   2.6434763   7.1271365  18.8963718   2.3130165   6.2892445
  19.9399492   3.2290687   6.8915565  18.1978411  10.3473292   9.9795352
  17.3765594   9.9905151  10.3177835  18.2092028  10.0898226   9.0576930
  18.2045736   6.2502585   7.2821736  17.6517617   6.8775368   7.7481703
  17.6917447   5.4421238   7.2696559  19.9690968  12.0141008  11.0820431
  20.1587045  12.7196606  10.4636046  19.3886102  11.4239234  10.6014625
  13.9473491   7.6862190   5.2379314  14.0629983   8.3506464   4.5586720
  14.6074281   7.0223408   5.0384487  14.2457046   8.8910049   7.8205523
  13.9716966   8.6505912   6.9354801  15.0336837   8.3705769   7.9769985
  21.5725895   4.7708644  10.9736019  21.2608657   3.8684011  11.0415732
  22.3240894   4.8098801  11.5651741  24.9982901   4.6884505   5.5908682
  24.7101347   5.0369133   6.4345340  24.9610374   3.7380995   5.6989284
  16.1917584   7.3734714   9.0641716  15.5735336   6.6704890   9.2637856
  16.2278189   7.8954794   9.8656946  21.5354498   5.6741056   5.4420775
  21.5789475   5.2363302   6.2921907  21.3812405   6.5946491   5.6543297
  20.5187558   5.0777076   8.2296221  19.6169548   5.3651543   8.0869290
  20.6180350   5.0641566   9.1815632  24.9158210   7.9800886   8.4520188
  25.4653080   7.7191001   7.7129783  25.5238813   8.0566522   9.1872961
  18.9546503   7.4831301   2.1036996  19.3677001   6.6196810   2.0948956
  18.3324779   7.4436116   2.8300409  16.0120546   4.2608633   7.6554163
  15.4830506   4.6380049   8.3583750  16.3254176   3.4293342   8.0112178
  19.1870500   6.3867273  10.9293700  19.4201984   7.3150712  10.9222119
  20.0265915   5.9292816  10.9756885  23.9367288  10.8311781   9.4044957
  24.3338547   9.9911846   9.1744222  23.6355557  10.7149087  10.3056106
  22.5311357  12.7873303   8.0726790  22.5412317  13.5204234   8.6880686
  23.0990361  12.1296997   8.4742298  22.7894299  10.8189044  11.9705449
  22.5525396   9.9927720  12.3919947  21.9799486  11.1168258  11.5555572
  23.5250410   5.1964306   8.1333261  23.8800108   6.0268137   8.4506463
  22.8213210   4.9865442   8.7472950  17.2137623  14.4295384   5.5501663
  17.6153928  14.7764699   6.3467612  17.5878393  14.9566837   4.8441804
  15.0362840   5.2210516  10.0414077  15.9422920   5.1184011  10.3326879
  14.5469062   5.4082364  10.8424714  20.4659477   8.8879666  10.9450807
  19.8669067   9.5453684  10.5912381  21.1019596   8.7418642  10.2448130
  17.0553450   4.1760366  11.4959776  16.8878321   4.3500745  12.4221968
  17.8470040   4.6762099  11.2976479  18.5489983   1.7399030   9.6563040
  17.6273679   1.9949192   9.6986842  18.7876229   1.8561252   8.7366396
  22.2145332   8.1647646   8.8041611  23.1505309   7.9873039   8.7111672
  21.9297040   8.4149400   7.9252320  26.5009697   7.0635637   6.2938707
  27.4574756   7.0975206   6.2806313  26.2797174   6.3237771   5.7281897
  19.3226031  13.7300316   8.8671344  18.4686805  13.3505533   9.0746054
  19.6525308  13.1964830   8.1441507  21.8672228  14.9429064   9.7772144
  22.4872508  15.6682153   9.7015565  21.0067407  15.3535796   9.6926574
  14.2122860   9.8981519   3.5999409  14.8168372   9.7311818   2.8768430
  14.7073279  10.4529040   4.2027803  15.2131020  12.6052556   4.8970692
  15.1549816  12.7990111   3.9614877  16.0320510  13.0147940   5.1760543
  15.6582714   5.4570830   4.8410423  15.4754481   4.9885695   5.6554762
  15.4241627   4.8371119   4.1503464  15.8936185   2.4183532   9.9134421
  14.9702271   2.3569872  10.1580121  16.3087087   2.8602952  10.6541304
  15.6071798   9.1677887  11.2761079  15.9654303   9.1136382  12.1620854
  14.6962968   9.4336774  11.4019144  20.1395448  12.1972521   6.9876462
  20.3385781  11.9573801   6.0826164  20.9843458  12.4506162   7.3596001
  16.7751608  13.1107784   8.6701666  16.1720885  13.8464323   8.5636347
  16.3806053  12.4020882   8.1619186  15.9155694  10.9091730   7.3551715
  15.0757827  10.5077065   7.5783636  15.7810697  11.2757105   6.4812195
  20.0964529  10.9025694   4.4758458  20.5948826  10.2289515   4.0132027
  20.3463704  11.7216029   4.0481109  22.8086183  12.7132248   5.3478255
  23.6321811  12.3923317   4.9803969  22.9754297  12.7791933   6.2880669
  20.9143913  14.6436330  12.6761721  21.3727700  14.6873267  11.8369989
  19.9910138  14.7570301  12.4509014   5.4595166  23.2050732  19.5754870
   4.9726661  22.3810040  19.5863653   5.9334662  23.1922981  18.7439580
   6.8900532  23.2338137  22.5656942   6.6082471  22.3571985  22.8271575
   6.7855805  23.2451550  21.6142802   5.8153903  20.6044501  22.5986196
   6.0364383  19.8512317  23.1463710   6.0670790  20.3393563  21.7139672
   9.1175894  17.5745714  18.5413459   9.3338229  16.6905317  18.8379074
   9.6885351  18.1458753  19.0550235   7.0145981  27.0811414  20.7192786
   6.3698722  27.6747227  20.3342831   7.4709121  26.7030026  19.9676002
   9.2294003  18.9778095  21.6487840   8.3956379  19.2394687  21.2581350
   9.8838244  19.5081530  21.1941448  11.4892640  18.1181735  23.3484496
  10.7859053  18.6815550  23.0257737  11.1371014  17.7304484  24.1496254
   2.6298121  16.3130644  18.9925739   2.9099359  15.4139044  18.8214779
   1.6809967  16.2514397  19.1029531   6.5986035  22.5818085  17.1435504
   5.7886731  22.2895480  16.7254257   7.0093236  23.1546004  16.4959004
   5.8938996  19.4090514  14.6754428   5.3326101  19.9038927  15.2723666
   6.7849937  19.6238769  14.9511840   9.0850427  26.2032949  18.5996906
   9.2370040  26.6042773  17.7439145   9.0692531  25.2624959  18.4239641
   7.7889951  23.7378656  15.0885906   8.6048523  23.3327886  14.7944455
   7.9673782  24.6780714  15.0679886   3.0864584  15.8356468  15.6361597
   2.7519809  15.5335216  16.4805985   3.0199259  15.0706936  15.0646251
   2.4698688  16.5916026  22.3876187   2.5813683  17.5031844  22.1177701
   2.8431678  16.0816354  21.6687214   8.5499528  21.1814600  17.9680764
   7.7510556  21.6647449  17.7572903   8.6825420  20.5997821  17.2195427
   6.8239536  19.8891001  20.1732813   7.2658118  20.5024835  19.5861238
   6.5771818  19.1548351  19.6109731   3.2745371  19.1097743  21.5889069
   3.6783140  19.0474028  20.7232824   3.4559774  20.0053821  21.8738592
   4.2065180  21.2045783  16.6116402   3.9903067  21.4711790  17.5051773
   3.3882531  21.3086731  16.1260079  10.8999636  27.2057528  20.6973258
  11.7628817  27.0245127  20.3248259  10.2871703  27.0096974  19.9886098
   5.6123036  16.8961920  15.3982957   4.6934838  16.6519107  15.5093304
   5.5825343  17.7783816  15.0280427   8.5887768  19.8429162  15.3849354
   8.9096261  20.5757990  14.8594163   8.6761428  19.0810655  14.8120633
   9.9940982  22.2758649  14.5030710  10.2335377  22.5888259  13.6307431
  10.8276752  22.1997702  14.9673887   9.0603451  26.2131902  22.3348711
   9.9174874  26.4297111  21.9679139   8.4352284  26.6548962  21.7601045
   1.1308870  25.3179532  17.6206916   1.6255263  25.1101810  18.4134050
   0.2907096  25.6455875  17.9416114   9.1655971  26.2463646  15.5626856
   9.0345594  26.2324995  14.6145987  10.0804516  25.9912406  15.6817860
  10.8617900  17.7174323  15.9554617   9.9327815  17.8691867  15.7818365
  10.8709945  17.0814638  16.6707876   3.3652284  21.2630650  19.4855289
   2.6453650  21.2366001  20.1158687   3.4677048  20.3549811  19.2007237
   6.5912105  17.7899652  18.0907139   6.3537742  17.5388055  17.1980916
   7.5426744  17.8916061  18.0658664   9.9188375  23.3666051  18.2881521
   9.5073692  22.5121159  18.1586381  10.3883411  23.2830289  19.1180999
   0.9377572  27.5399639  13.9169769   0.8533646  26.6642299  14.2940708
   1.7014103  27.9164962  14.3543431   4.7752657  23.5505687  13.8533988
   4.8965650  24.4649893  13.5977559   5.5962514  23.3111605  14.2833966
   1.0836580  24.9295386  14.8078378   1.0713337  24.8133654  15.7578819
   1.7114493  24.2781910  14.4950178   2.5675395  22.0176635  14.4389431
   2.3327314  21.6290767  13.5962704   3.4256205  22.4144352  14.2889396
   7.1498023  15.3406968  13.2909510   7.0821270  14.5239526  13.7855022
   6.3325276  15.8024798  13.4781684   2.8259654  18.4717632  15.4292721
   2.6916122  18.6309880  16.3635250   2.7836136  17.5196719  15.3400519
  12.0211325  25.7119725  15.6208436  12.5737383  26.4073509  15.9776456
  12.3005286  24.9224391  16.0843160  12.9690242  26.7069743  19.2963765
  13.3278347  25.8224899  19.2244440  13.5546388  27.2469131  18.7655719
  12.5373441  25.5684185  12.6912554  11.7906811  25.2252740  12.2003601
  12.1457832  26.0129190  13.4431405   8.9733602  17.4935349  13.9790620
   9.7212794  17.1539659  13.4875932   8.2578096  16.8924407  13.7719269
  12.0442013  23.0891194  16.5765871  11.8823819  22.1461439  16.6056283
  11.3672413  23.4657297  17.1388341  11.2643045  20.8146816  20.6737751
  11.9888628  20.4248798  20.1845905  11.5177924  21.7306066  20.7880431
  11.9931895  20.2975667  16.4454897  12.5329664  19.9721578  17.1658937
  11.5127683  19.5282062  16.1396929  13.1873912  19.2984436  18.6374956
  12.8403903  18.4452453  18.8980237  14.1150805  19.2609560  18.8703457
   8.5067212  16.4531997  21.7659699   9.0931214  15.8256776  22.1885603
   8.9765899  17.2860686  21.8082138  12.1131081  17.0308166  19.6889368
  11.6422491  16.2210259  19.4920542  12.3352501  16.9590665  20.6172346
   4.0686312  18.5797688  19.1015084   3.6074196  17.7462875  19.0075687
   4.9038709  18.4430416  18.6543932   6.4326024  15.6205546  19.8976297
   7.0113861  15.6951921  20.6563593   6.4609181  16.4855780  19.4887720
  11.2171328  15.1643929  14.5921164  11.1231724  16.0391052  14.9693188
  11.3712587  15.3206284  13.6604150   5.4091641  23.7696871   2.2968307
   4.5501204  23.5257345   2.6414506   6.0256283  23.2166055   2.7767311
   6.1961128  26.7623187   3.8737773   5.9475797  25.9779312   3.3846971
   5.3713715  27.0953777   4.2274797   5.4867747  20.1185674   2.8118349
   5.1080190  19.4230277   2.2742472   4.7333957  20.5345114   3.2309324
  12.4524709  20.5495744   7.3846268  12.0377376  21.4035694   7.5067774
  13.0745341  20.4796389   8.1087664   8.5255786  18.5760192   2.6805066
   8.1406415  18.1894067   3.4670090   8.2457671  19.4911582   2.7019098
  11.5042873  19.6047328   5.0480726  10.6636946  20.0385308   5.1945481
  12.0478424  19.8802698   5.7862183   8.6081166  26.9309589   5.0736944
   9.0653593  27.4763147   4.4335788   7.7190887  26.8504185   4.7281882
  12.3249059  25.8378402   5.9675641  11.8230989  25.4974078   6.7081905
  12.9520238  26.4441965   6.3616289   9.1414986  21.2892179   5.3759841
   8.4618866  21.7214164   4.8587185   8.6677831  20.6481748   5.9059739
  12.3910337  19.3051792  11.1197636  11.5734623  19.5934303  10.7139063
  12.1136507  18.7694881  11.8629497   4.3855306  20.2284360   7.9506246
   3.7630553  20.2549829   8.6772962   4.1246948  19.4621852   7.4396881
   9.8031080  20.8133681   9.9362663   8.8908334  20.8038077  10.2259134
  10.0436141  21.7398544   9.9328291   7.6592481  22.4520775  11.1092983
   7.1543641  21.6783570  11.3596592   8.3786875  22.4829804  11.7399200
   1.4659408  19.8304813   5.2492277   2.1295274  19.3403134   5.7346349
   0.9759326  19.1614433   4.7711985   3.5907308  23.1577300   9.8186192
   3.3781144  22.2460190  10.0181413   4.2731314  23.1036338   9.1495641
   3.4884643  19.6032785  13.1589308   3.0016799  19.4306680  13.9648331
   4.3943865  19.7175410  13.4461258   6.8684597  22.1587778   3.7727032
   6.4411805  21.9991671   4.6142427   6.5728842  21.4400405   3.2138797
   3.4586847  21.4611629   4.1142786   2.7252243  20.9841073   4.5024611
   3.4217256  22.3278333   4.5189368   7.2784605  17.5633040   4.9256665
   7.1010217  18.0912251   5.7041565   6.4954335  17.0231972   4.8189648
  10.0275590  15.8898405   9.6154438   9.4383070  16.4237196   9.0825394
  10.6800528  15.5625508   8.9962789   3.7352964  24.1036148   5.0931948
   4.3186573  23.5594550   5.6221674   3.6158215  24.8999311   5.6107255
  11.0235101  26.0280121   3.2465479  11.8916901  26.3852680   3.0598301
  11.1065280  25.6397491   4.1175196   6.1885794  25.2769628  11.7048205
   6.0020754  24.3499455  11.5562037   5.5391238  25.7398003  11.1754617
  12.9543935  25.4428228   8.8235470  13.4657201  25.3199384   9.6233447
  13.3939374  26.1595465   8.3660100   7.0315556  25.1142969   0.7905714
   7.5593187  25.4288400   1.5245745   6.2999717  24.6537813   1.2015974
   7.4220673  19.7194678   6.9966678   7.8340317  18.9593760   7.4074935
   6.7417990  19.9865153   7.6148527   5.4985037  22.4535685   6.4148104
   5.9743489  22.9184174   7.1030826   5.3931511  21.5649690   6.7546982
  10.2772732  19.1371166   8.0162546  10.0722953  19.7217273   8.7459437
  11.0038605  19.5650669   7.5633073   3.8708102  25.9213119   9.9199643
   3.8974267  24.9653246   9.9601103   3.0538456  26.1568460  10.3596509
   8.2139211  26.0970959  13.1134909   8.0517023  27.0140391  12.8918335
   7.4833088  25.6220899  12.7175024  10.2306579  24.1622761  12.0528362
  10.4831276  24.1495204  11.1296200   9.4412721  24.7030882  12.0778208
   3.4723537  26.6392130   6.8302875   3.6717956  26.4175418   7.7398570
   3.4728030  27.5962259   6.8113685   6.5185840  23.4454188   8.9000866
   6.9314235  23.1131795   9.6972142   6.9417455  24.2899368   8.7453104
   7.8636537  25.6118827   7.8561200   7.6869555  25.8142176   6.9373870
   8.8130278  25.6985847   7.9421633   2.8007864  20.4535617  10.2540158
   3.0833726  20.0088501  11.0531457   1.8519334  20.3291225  10.2334090
   7.8180025  19.3271355  11.8744453   7.7374885  18.5607266  11.3066718
   8.1814902  18.9834989  12.6905472  10.7487603  23.9518548   9.5007214
  10.4952200  23.5487261   8.6703983  11.6034867  24.3452307   9.3248525
  11.1868549  16.8724247  12.2406162  12.0915448  16.5642230  12.1878933
  10.7837463  16.5723771  11.4259342  12.8749163  20.9455640   3.0065737
  12.2856165  20.6385378   3.6955531  12.6835133  20.3802838   2.2582054
  10.5744121  23.2880448   6.8778394  10.0695232  22.7206688   6.2952559
  11.2147978  23.7102303   6.3052161  11.5176483  16.6606169   7.3236851
  11.3010182  17.5889065   7.2366127  11.1902220  16.2616230   6.5175662
   4.4986725  17.0090496  12.5157282   4.0790951  17.7206191  12.9993144
   5.0126673  17.4497681  11.8391127   6.4527740  17.3548272  10.4061571
   6.3804430  17.8274927   9.5769481   6.8699379  16.5253436  10.1734275
   6.9209752  15.0966664   7.1345576   6.3433910  15.4065225   6.4369778
   6.4391015  14.3773048   7.5426611   8.2059130  17.3824275   8.0120864
   7.7749492  16.6268686   7.6125457   8.9080136  17.6080738   7.4018648
   5.0728684  16.0927528   5.0806202   4.3992676  16.4712700   5.6456144
   4.5842978  15.6844127   4.3659252  10.2923083  17.0219441   1.3093100
  11.1489299  17.0866893   1.7314941   9.7568963  17.6806782   1.7516168
   8.7045529  14.8811902   2.4961584   9.3491345  15.5331112   2.2209394
   7.8710831  15.3518737   2.4920520   7.4059888  14.4944919  10.3423117
   7.2825541  14.8077496  11.2383392   8.3002217  14.7530009  10.1192590
   7.0793186   4.7909729  19.0813047   6.6320242   4.0588349  18.6568834
   6.3742916   5.3832275  19.3428450   6.4162450   6.8543117  21.5141795
   7.2246390   6.3863268  21.3050839   5.8465125   6.6963972  20.7613849
  10.0960964  11.5518986  19.6847168   9.7852696  11.0125145  20.4118230
  11.0471494  11.5722753  19.7910876   6.2475375  12.8074257  19.3924460
   5.9702379  13.7139301  19.5250601   7.0679699  12.8769026  18.9042908
   5.4684003   9.4428904  21.8156058   5.9377507   8.6108041  21.8753927
   5.4679272   9.7824522  22.7105525   6.1758068   8.5145757  17.6989301
   5.9675990   9.0289264  16.9189784   5.8708479   9.0529088  18.4292927
   7.5682754  13.4368536  22.2517072   6.6886808  13.7579059  22.0530354
   7.8851060  13.0778859  21.4228572  11.6387454   9.3482663  17.0317405
  12.2412151   8.6410743  16.8012159  11.0455372   8.9578721  17.6735568
   4.8461811   6.7223762  19.3572577   3.9669558   6.7683850  18.9816544
   5.3845910   7.2558425  18.7726550   9.6027739   8.0115630  18.6113165
   8.7105438   8.3546860  18.5620828   9.4928888   7.0928512  18.8565220
   8.1488120   6.5606166  15.3408479   8.0009872   6.6957150  16.2768651
   9.0091507   6.9464989  15.1760931   4.8377267  10.4038972  19.4347688
   5.2877695  11.2485715  19.4495573   4.8364315  10.1171792  20.3480174
   7.7203465  13.3115029  15.0446935   7.9166218  12.9175207  15.8946852
   8.5760926  13.5483263  14.6871390   8.8000805  12.9594979  17.8680839
   9.3007645  12.3098722  18.3615755   9.1986989  13.7976165  18.1023752
   6.8559461   1.9888815  16.8408962   6.1231111   1.7282764  16.2829807
   7.4961554   2.3635071  16.2359006  -0.0875374   4.9179940  12.5810913
  -0.2051468   3.9683980  12.5552576   0.3627426   5.1259278  11.7624075
  10.7373214   7.8722751  22.0663205  11.6821148   8.0237520  22.0407870
  10.5957245   7.1406721  21.4655383   8.5098658   3.5651671  15.2956005
   9.4499726   3.7424989  15.2642224   8.1027574   4.4314635  15.3006100
   4.1834737   8.8974556  15.4419601   4.6855005   9.5759250  14.9904292
   3.8124314   9.3415294  16.2044284  11.5121327   3.6323332  14.9547462
  10.9148141   3.9665924  14.2856326  12.3837987   3.7454694  14.5757601
  12.2031746  11.6126947  15.5741207  11.7992791  10.8413261  15.9717271
  12.1178295  11.4687958  14.6316552   8.8467556  10.0348302  21.6655335
   9.2550344   9.2149931  21.9437551   7.9801192  10.0207259  22.0717037
   3.0751105  10.2184787  17.4851278   3.5528717  10.0779440  18.3025788
   2.8012444  11.1349113  17.5222829   2.7833958   7.3542202  17.3536074
   2.6835826   8.3058750  17.3785557   2.6657012   7.1251368  16.4317069
  10.6567160   7.2362628  14.6768678  10.4144014   6.5546646  14.0500191
  11.5945433   7.1081688  14.8193585   4.6154494  10.9678166  13.4578008
   5.0446928  10.2007741  13.0788180   4.0488852  11.2948942  12.7590469
   3.5481632  13.9070349  17.8657370   3.8990758  13.7528663  16.9886256
   4.2109278  13.5475822  18.4554562   9.6858800   5.4970539  19.5863922
   8.8510449   5.2148345  19.2127155  10.1193931   4.6839383  19.8455087
  11.8683415  13.6679172  20.9594264  11.7225533  13.8111408  21.8945546
  12.6937504  13.1850891  20.9168938   3.0022301  12.2551565  11.3850204
   3.4667272  13.0920095  11.3973238   2.1021447  12.4841994  11.1534661
   1.2337194   8.8037632  12.9227072   0.7190849   9.5689691  13.1793063
   1.3707716   8.3226691  13.7387936   5.3991781   6.4953648  15.1531297
   5.3904902   7.3684668  15.5453660   6.3275712   6.2969488  15.0308628
   2.5658148   6.3070780  14.3288910   3.4567262   6.5178190  14.6083496
   2.5513072   5.3514848  14.2753837   4.3548670   3.5036145  12.8125387
   5.0507885   3.6692737  12.1765497   4.7507346   2.9114264  13.4519399
   4.3530860  13.2976178  15.0364794   5.2638115  13.5716396  15.1447518
   4.4092892  12.4432946  14.6084548  13.2592281   6.6429691  15.2934992
  13.9938375   7.2082714  15.5322754  13.2678683   5.9481305  15.9517974
  13.7406748   7.9227256  21.3342822  13.8723949   7.1103405  20.8454959
  14.3454369   8.5455717  20.9310981  14.1569422   6.6626736  12.2605998
  13.7354951   7.3298500  11.7188527  14.5303355   7.1508016  12.9944528
  12.4406337   4.7625798  17.5842053  11.7458685   4.9932309  18.2009169
  12.0071166   4.2166826  16.9282397  11.1509474   3.4101027  20.5236523
  10.9505715   2.5820919  20.9600918  11.8261346   3.8118053  21.0704513
  11.6246503   1.2258998  16.2757166  11.0406890   1.3329526  17.0265567
  11.4280234   1.9732599  15.7108958  10.8157250  14.9496270  18.6281877
  11.3285476  14.6910808  17.8624209  11.1685893  14.4195561  19.3428509
   9.9432580  14.5388331  23.4098342   9.7864597  14.6039640  24.3518555
   9.2212117  14.0018745  23.0834045  12.6336338  14.1775836  16.6440802
  12.4497862  13.2569612  16.4573015  12.1619255  14.6587432  15.9642209
   6.1053814   6.1594258   4.0842189   5.3253673   6.3847508   4.5912084
   6.8203239   6.1860807   4.7201266   8.9375163   9.6694456   3.2762525
   8.7112975   9.1706506   2.4912299   9.8195436   9.9992655   3.1045594
   7.1536614   5.7492501   1.5742292   6.7795731   6.0567083   2.3999163
   6.4460006   5.2556247   1.1597633  10.2822222  10.4028279   6.1207563
  10.4682853  10.8446109   5.2922395  11.1094641  10.4364014   6.6011474
   8.9826230  13.1170880   4.5791566   8.4115754  12.4054313   4.8684336
   8.4831067  13.5616665   3.8942731   8.2754680   6.5591967   6.1548812
   8.9759976   6.7386854   5.5277655   8.1140473   7.4009472   6.5810634
  11.7854081   6.9445964   6.7491720  11.1950550   7.1489766   6.0239523
  12.6621810   7.0795843   6.3896175   9.4884735   3.9294814   5.4472601
   9.2243188   4.8090350   5.1773720   8.6645519   3.4539979   5.5535644
  11.1239525  13.2294810   6.7998272  11.0420690  14.0282802   6.2788216
  10.2787216  12.7912786   6.7008561  12.9828521   8.5802529  10.2561287
  13.4215478   8.6591157   9.4090404  12.0498564   8.6308114  10.0482953
   5.2980003  13.3887394   9.0225848   6.0710525  13.6651791   9.5147263
   4.6086609  13.9917477   9.3008366   8.6850794   1.9174269  10.3561436
   8.2092211   1.4005502   9.7060443   8.9747206   2.6948417   9.8786856
   7.2411890   3.0542605  12.5327760   7.7935903   2.5160245  11.9658664
   7.6673818   3.0157854  13.3889952   2.6698677   4.0394913  10.4059554
   2.7576119   3.5029469  11.1937706   2.5634074   4.9321280  10.7347377
   6.8658291   3.1092570   6.6284660   6.6913916   4.0092176   6.9039191
   6.0012616   2.7010599   6.5823151   4.1896437   6.5610111   6.2161645
   4.0791989   5.9289255   6.9264472   3.7669894   7.3577793   6.5367198
  10.2846056   7.5993322   4.6420040   9.8230520   8.4192612   4.4661729
  10.7234256   7.3899282   3.8174927   5.1646013   6.9047726  10.4523346
   5.6800619   6.1136140  10.6091794   4.2548273   6.6103336  10.4953326
   5.5374099   9.2958362   9.2560002   5.4744806   8.3824196   9.5351809
   4.9059103   9.7586471   9.8066781  10.4589062   7.9011263   8.9954059
   9.5751535   8.1144955   8.6959288  10.8590139   7.4448636   8.2551559
   8.6574792   8.0077068   1.2376212   9.1969822   7.5652240   0.5823524
   7.9277817   7.4077212   1.3918634   4.9203833  11.8788600   6.5788629
   5.2638361  12.2705482   7.3818899   5.6738942  11.4382903   6.1859868
   7.3962394  10.9876834   5.1124806   7.5808822  10.5535831   5.9453647
   7.8450798  10.4519154   4.4584725   7.6746987  10.9702541   8.7359627
   8.1131399  11.2431518   9.5418957   6.9159643  10.4686038   9.0341252
   3.1256217   9.6024578  10.8629873   2.6486067   9.4587416  11.6803209
   3.3190048  10.5399155  10.8601901   4.5033803   3.7873601   8.3572860
   5.0907769   4.0463412   9.0673043   3.6511956   3.6780672   8.7792673
  11.6466720  10.1916004   2.9330042  11.6324881  10.9577363   2.3593611
  12.5706434  10.0750975   3.1542186   5.6983358   8.5015401  12.6641782
   5.6301713   7.9833184  11.8622855   4.9047376   8.2885646  13.1551722
   2.1827723   6.7139720  11.2346515   2.4378655   6.8622676  12.1452380
   1.6512091   7.4769220  11.0075399   8.4088104   7.0137985  11.9963717
   7.6999091   7.5656762  12.3267074   8.7493622   7.4893574  11.2386778
  10.0443166   4.7709016  12.9873055  10.4849424   4.6452064  12.1469000
   9.2853944   5.3163810  12.7806146   2.7664740   8.3131444   7.7159663
   3.1325001   8.4886339   8.5828343   2.3828660   9.1470883   7.4446464
   6.1853547   4.4269494  10.6130286   6.6964659   3.9470647  11.2647247
   6.8043931   4.6011843   9.9040395   8.1894430   4.8680534   8.8650893
   8.2298002   5.3886903   8.0628796   9.0891570   4.8612767   9.1917400
   2.2546607  15.2979286   8.5926899   2.5348593  16.0582065   8.0830840
   1.7359584  14.7767677   7.9798513   8.2422291   9.0057055   7.1633666
   7.7714894   9.5566411   7.7887512   8.9778984   9.5458056   6.8747244
  10.7127322   5.3749726  10.4361727  10.9523098   4.8400324   9.6794207
  10.6040976   6.2572115  10.0810884  12.2933751   2.9440069   4.9753108
  11.4229253   3.3252558   4.8604271  12.4487749   2.9818500   5.9190537
  10.8309149   4.4742676   7.7804162  10.2925298   4.0624355   7.1045703
  11.2332448   5.2241484   7.3421910   2.2815005  10.9020417   6.8853653
   1.7233671  11.4197029   6.3050673   3.1717773  11.1849153   6.6765075
  13.8377895  13.6897887   7.0595933  12.9410972  13.3573556   7.1003738
  14.1668268  13.3880329   6.2128880  10.5168019  15.3938578   5.0134396
  10.3210129  16.1221986   4.4240177   9.7126057  14.8749365   5.0283049
   5.4376595  12.8557757   3.7591191   6.0335208  12.1161767   3.8781757
   5.1352850  13.0644302   4.6430109   3.4985478  14.8806039  10.9246625
   2.9281595  15.2126274  10.2313736   3.8533949  15.6666831  11.3398672
  26.8100394  29.3047319  25.0437651  90.0000000  90.0000000  90.0000000
