;
;   File examples/CLN025/gromacs/chignolin.top  was generated
;   By user: dm (1000)
;   On host:cachyos 
;   At date:Thu. June  4 22:13:57 2026 
;
;   This is a standalone topology file
;
;   Created by:
;   ParmEd:       -, VERSION4.3.1 
;   Executable:   -
;   Library dir:  /home/dm/Soft/GMX26/share/gromacs/top
;   Command line:
;     -
;

[ defaults ]
; nbfunc        comb-rule       gen-pairs       fudgeLJ fudgeQQ
1               2               yes             0.5          0.83333333  

[ atomtypes ]
; name    at.num    mass    charge ptype  sigma      epsilon
N3             7  14.010000  0.00000000  A     0.32499985        0.71128
H              1   1.008000  0.00000000  A     0.10690785      0.0656888
CX             6  12.010000  0.00000000  A     0.33996695      0.4577296
HP             1   1.008000  0.00000000  A     0.19599772      0.0656888
C              6  12.010000  0.00000000  A     0.33996695       0.359824
O              8  16.000000  0.00000000  A     0.29599219        0.87864
N              7  14.010000  0.00000000  A     0.32499985        0.71128
H1             1   1.008000  0.00000000  A      0.2471353      0.0656888
CT             6  12.010000  0.00000000  A     0.33996695      0.4577296
HC             1   1.008000  0.00000000  A     0.26495328      0.0656888
CA             6  12.010000  0.00000000  A     0.33996695       0.359824
HA             1   1.008000  0.00000000  A     0.25996425        0.06276
OH             8  16.000000  0.00000000  A     0.30664734      0.8803136
HO             1   1.008000  0.00000000  A              0              0
2C             6  12.010000  0.00000000  A     0.33996695      0.4577296
CO             6  12.010000  0.00000000  A     0.33996695       0.359824
O2             8  16.000000  0.00000000  A     0.29599219        0.87864
3C             6  12.010000  0.00000000  A     0.33996695      0.4577296
C*             6  12.010000  0.00000000  A     0.33996695       0.359824
CW             6  12.010000  0.00000000  A     0.33996695       0.359824
H4             1   1.008000  0.00000000  A     0.25105526        0.06276
NA             7  14.010000  0.00000000  A     0.32499985        0.71128
CN             6  12.010000  0.00000000  A     0.33996695       0.359824
CB             6  12.010000  0.00000000  A     0.33996695       0.359824


[ moleculetype ]
; Name            nrexcl
system1          3

[ atoms ]
;   nr       type  resnr residue  atom   cgnr    charge       mass  typeB    chargeB      massB
; residue    1 GLY rtp GLY q 1.0
    1         N3      1    GLY      N      1 0.29430000  14.010000   ; qtot 0.294300
    2          H      1    GLY     H1      2 0.16420000   1.008000   ; qtot 0.458500
    3          H      1    GLY     H2      3 0.16420000   1.008000   ; qtot 0.622700
    4          H      1    GLY     H3      4 0.16420000   1.008000   ; qtot 0.786900
    5         CX      1    GLY     CA      5 -0.01000000  12.010000   ; qtot 0.776900
    6         HP      1    GLY    HA2      6 0.08950000   1.008000   ; qtot 0.866400
    7         HP      1    GLY    HA3      7 0.08950000   1.008000   ; qtot 0.955900
    8          C      1    GLY      C      8 0.61630000  12.010000   ; qtot 1.572200
    9          O      1    GLY      O      9 -0.57220000  16.000000   ; qtot 1.000000
; residue    2 TYR rtp TYR q -0.0
   10          N      2    TYR      N     10 -0.41570000  14.010000   ; qtot 0.584300
   11          H      2    TYR      H     11 0.27190000   1.008000   ; qtot 0.856200
   12         CX      2    TYR     CA     12 -0.00140000  12.010000   ; qtot 0.854800
   13         H1      2    TYR     HA     13 0.08760000   1.008000   ; qtot 0.942400
   14         CT      2    TYR     CB     14 -0.01520000  12.010000   ; qtot 0.927200
   15         HC      2    TYR    HB2     15 0.02950000   1.008000   ; qtot 0.956700
   16         HC      2    TYR    HB3     16 0.02950000   1.008000   ; qtot 0.986200
   17         CA      2    TYR     CG     17 -0.00110000  12.010000   ; qtot 0.985100
   18         CA      2    TYR    CD1     18 -0.19060000  12.010000   ; qtot 0.794500
   19         HA      2    TYR    HD1     19 0.16990000   1.008000   ; qtot 0.964400
   20         CA      2    TYR    CE1     20 -0.23410000  12.010000   ; qtot 0.730300
   21         HA      2    TYR    HE1     21 0.16560000   1.008000   ; qtot 0.895900
   22          C      2    TYR     CZ     22 0.32260000  12.010000   ; qtot 1.218500
   23         OH      2    TYR     OH     23 -0.55790000  16.000000   ; qtot 0.660600
   24         HO      2    TYR     HH     24 0.39920000   1.008000   ; qtot 1.059800
   25         CA      2    TYR    CE2     25 -0.23410000  12.010000   ; qtot 0.825700
   26         HA      2    TYR    HE2     26 0.16560000   1.008000   ; qtot 0.991300
   27         CA      2    TYR    CD2     27 -0.19060000  12.010000   ; qtot 0.800700
   28         HA      2    TYR    HD2     28 0.16990000   1.008000   ; qtot 0.970600
   29          C      2    TYR      C     29 0.59730000  12.010000   ; qtot 1.567900
   30          O      2    TYR      O     30 -0.56790000  16.000000   ; qtot 1.000000
; residue    3 ASP rtp ASP q -1.0
   31          N      3    ASP      N     31 -0.51630000  14.010000   ; qtot 0.483700
   32          H      3    ASP      H     32 0.29360000   1.008000   ; qtot 0.777300
   33         CX      3    ASP     CA     33 0.03810000  12.010000   ; qtot 0.815400
   34         H1      3    ASP     HA     34 0.08800000   1.008000   ; qtot 0.903400
   35         2C      3    ASP     CB     35 -0.03030000  12.010000   ; qtot 0.873100
   36         HC      3    ASP    HB2     36 -0.01220000   1.008000   ; qtot 0.860900
   37         HC      3    ASP    HB3     37 -0.01220000   1.008000   ; qtot 0.848700
   38         CO      3    ASP     CG     38 0.79940000  12.010000   ; qtot 1.648100
   39         O2      3    ASP    OD1     39 -0.80140000  16.000000   ; qtot 0.846700
   40         O2      3    ASP    OD2     40 -0.80140000  16.000000   ; qtot 0.045300
   41          C      3    ASP      C     41 0.53660000  12.010000   ; qtot 0.581900
   42          O      3    ASP      O     42 -0.58190000  16.000000   ; qtot -0.000000
; residue    4 PRO rtp PRO q 0.0
   43          N      4    PRO      N     43 -0.25480000  14.010000   ; qtot -0.254800
   44         CT      4    PRO     CD     44 0.01920000  12.010000   ; qtot -0.235600
   45         H1      4    PRO    HD2     45 0.03910000   1.008000   ; qtot -0.196500
   46         H1      4    PRO    HD3     46 0.03910000   1.008000   ; qtot -0.157400
   47         CT      4    PRO     CG     47 0.01890000  12.010000   ; qtot -0.138500
   48         HC      4    PRO    HG2     48 0.02130000   1.008000   ; qtot -0.117200
   49         HC      4    PRO    HG3     49 0.02130000   1.008000   ; qtot -0.095900
   50         CT      4    PRO     CB     50 -0.00700000  12.010000   ; qtot -0.102900
   51         HC      4    PRO    HB2     51 0.02530000   1.008000   ; qtot -0.077600
   52         HC      4    PRO    HB3     52 0.02530000   1.008000   ; qtot -0.052300
   53         CX      4    PRO     CA     53 -0.02660000  12.010000   ; qtot -0.078900
   54         H1      4    PRO     HA     54 0.06410000   1.008000   ; qtot -0.014800
   55          C      4    PRO      C     55 0.58960000  12.010000   ; qtot 0.574800
   56          O      4    PRO      O     56 -0.57480000  16.000000   ; qtot -0.000000
; residue    5 GLU rtp GLU q -1.0
   57          N      5    GLU      N     57 -0.51630000  14.010000   ; qtot -0.516300
   58          H      5    GLU      H     58 0.29360000   1.008000   ; qtot -0.222700
   59         CX      5    GLU     CA     59 0.03970000  12.010000   ; qtot -0.183000
   60         H1      5    GLU     HA     60 0.11050000   1.008000   ; qtot -0.072500
   61         2C      5    GLU     CB     61 0.05600000  12.010000   ; qtot -0.016500
   62         HC      5    GLU    HB2     62 -0.01730000   1.008000   ; qtot -0.033800
   63         HC      5    GLU    HB3     63 -0.01730000   1.008000   ; qtot -0.051100
   64         2C      5    GLU     CG     64 0.01360000  12.010000   ; qtot -0.037500
   65         HC      5    GLU    HG2     65 -0.04250000   1.008000   ; qtot -0.080000
   66         HC      5    GLU    HG3     66 -0.04250000   1.008000   ; qtot -0.122500
   67         CO      5    GLU     CD     67 0.80540000  12.010000   ; qtot 0.682900
   68         O2      5    GLU    OE1     68 -0.81880000  16.000000   ; qtot -0.135900
   69         O2      5    GLU    OE2     69 -0.81880000  16.000000   ; qtot -0.954700
   70          C      5    GLU      C     70 0.53660000  12.010000   ; qtot -0.418100
   71          O      5    GLU      O     71 -0.58190000  16.000000   ; qtot -1.000000
; residue    6 THR rtp THR q 0.0
   72          N      6    THR      N     72 -0.41570000  14.010000   ; qtot -1.415700
   73          H      6    THR      H     73 0.27190000   1.008000   ; qtot -1.143800
   74         CX      6    THR     CA     74 -0.03890000  12.010000   ; qtot -1.182700
   75         H1      6    THR     HA     75 0.10070000   1.008000   ; qtot -1.082000
   76         3C      6    THR     CB     76 0.36540000  12.010000   ; qtot -0.716600
   77         H1      6    THR     HB     77 0.00430000   1.008000   ; qtot -0.712300
   78         CT      6    THR    CG2     78 -0.24380000  12.010000   ; qtot -0.956100
   79         HC      6    THR   HG21     79 0.06420000   1.008000   ; qtot -0.891900
   80         HC      6    THR   HG22     80 0.06420000   1.008000   ; qtot -0.827700
   81         HC      6    THR   HG23     81 0.06420000   1.008000   ; qtot -0.763500
   82         OH      6    THR    OG1     82 -0.67610000  16.000000   ; qtot -1.439600
   83         HO      6    THR    HG1     83 0.41020000   1.008000   ; qtot -1.029400
   84          C      6    THR      C     84 0.59730000  12.010000   ; qtot -0.432100
   85          O      6    THR      O     85 -0.56790000  16.000000   ; qtot -1.000000
; residue    7 GLY rtp GLY q -0.0
   86          N      7    GLY      N     86 -0.41570000  14.010000   ; qtot -1.415700
   87          H      7    GLY      H     87 0.27190000   1.008000   ; qtot -1.143800
   88         CX      7    GLY     CA     88 -0.02520000  12.010000   ; qtot -1.169000
   89         H1      7    GLY    HA2     89 0.06980000   1.008000   ; qtot -1.099200
   90         H1      7    GLY    HA3     90 0.06980000   1.008000   ; qtot -1.029400
   91          C      7    GLY      C     91 0.59730000  12.010000   ; qtot -0.432100
   92          O      7    GLY      O     92 -0.56790000  16.000000   ; qtot -1.000000
; residue    8 THR rtp THR q 0.0
   93          N      8    THR      N     93 -0.41570000  14.010000   ; qtot -1.415700
   94          H      8    THR      H     94 0.27190000   1.008000   ; qtot -1.143800
   95         CX      8    THR     CA     95 -0.03890000  12.010000   ; qtot -1.182700
   96         H1      8    THR     HA     96 0.10070000   1.008000   ; qtot -1.082000
   97         3C      8    THR     CB     97 0.36540000  12.010000   ; qtot -0.716600
   98         H1      8    THR     HB     98 0.00430000   1.008000   ; qtot -0.712300
   99         CT      8    THR    CG2     99 -0.24380000  12.010000   ; qtot -0.956100
  100         HC      8    THR   HG21    100 0.06420000   1.008000   ; qtot -0.891900
  101         HC      8    THR   HG22    101 0.06420000   1.008000   ; qtot -0.827700
  102         HC      8    THR   HG23    102 0.06420000   1.008000   ; qtot -0.763500
  103         OH      8    THR    OG1    103 -0.67610000  16.000000   ; qtot -1.439600
  104         HO      8    THR    HG1    104 0.41020000   1.008000   ; qtot -1.029400
  105          C      8    THR      C    105 0.59730000  12.010000   ; qtot -0.432100
  106          O      8    THR      O    106 -0.56790000  16.000000   ; qtot -1.000000
; residue    9 TRP rtp TRP q -0.0
  107          N      9    TRP      N    107 -0.41570000  14.010000   ; qtot -1.415700
  108          H      9    TRP      H    108 0.27190000   1.008000   ; qtot -1.143800
  109         CX      9    TRP     CA    109 -0.02750000  12.010000   ; qtot -1.171300
  110         H1      9    TRP     HA    110 0.11230000   1.008000   ; qtot -1.059000
  111         CT      9    TRP     CB    111 -0.00500000  12.010000   ; qtot -1.064000
  112         HC      9    TRP    HB2    112 0.03390000   1.008000   ; qtot -1.030100
  113         HC      9    TRP    HB3    113 0.03390000   1.008000   ; qtot -0.996200
  114         C*      9    TRP     CG    114 -0.14150000  12.010000   ; qtot -1.137700
  115         CW      9    TRP    CD1    115 -0.16380000  12.010000   ; qtot -1.301500
  116         H4      9    TRP    HD1    116 0.20620000   1.008000   ; qtot -1.095300
  117         NA      9    TRP    NE1    117 -0.34180000  14.010000   ; qtot -1.437100
  118          H      9    TRP    HE1    118 0.34120000   1.008000   ; qtot -1.095900
  119         CN      9    TRP    CE2    119 0.13800000  12.010000   ; qtot -0.957900
  120         CA      9    TRP    CZ2    120 -0.26010000  12.010000   ; qtot -1.218000
  121         HA      9    TRP    HZ2    121 0.15720000   1.008000   ; qtot -1.060800
  122         CA      9    TRP    CH2    122 -0.11340000  12.010000   ; qtot -1.174200
  123         HA      9    TRP    HH2    123 0.14170000   1.008000   ; qtot -1.032500
  124         CA      9    TRP    CZ3    124 -0.19720000  12.010000   ; qtot -1.229700
  125         HA      9    TRP    HZ3    125 0.14470000   1.008000   ; qtot -1.085000
  126         CA      9    TRP    CE3    126 -0.23870000  12.010000   ; qtot -1.323700
  127         HA      9    TRP    HE3    127 0.17000000   1.008000   ; qtot -1.153700
  128         CB      9    TRP    CD2    128 0.12430000  12.010000   ; qtot -1.029400
  129          C      9    TRP      C    129 0.59730000  12.010000   ; qtot -0.432100
  130          O      9    TRP      O    130 -0.56790000  16.000000   ; qtot -1.000000
; residue   10 GLY rtp GLY q -1.0
  131          N     10    GLY      N    131 -0.38210000  14.010000   ; qtot -1.382100
  132          H     10    GLY      H    132 0.26810000   1.008000   ; qtot -1.114000
  133         CX     10    GLY     CA    133 -0.24930000  12.010000   ; qtot -1.363300
  134         H1     10    GLY    HA2    134 0.10560000   1.008000   ; qtot -1.257700
  135         H1     10    GLY    HA3    135 0.10560000   1.008000   ; qtot -1.152100
  136          C     10    GLY      C    136 0.72310000  12.010000   ; qtot -0.429000
  137         O2     10    GLY      O    137 -0.78550000  16.000000   ; qtot -1.214500
  138         O2     10    GLY    OXT    138 -0.78550000  16.000000   ; qtot -2.000000

[ bonds ]
;    ai     aj funct         c0         c1         c2         c3
      8      9     1   0.12290 476976.000000
      8     10     1   0.13350 410032.000000
      5      8     1   0.15220 265265.600000
      1      5     1   0.14710 307105.600000
     29     30     1   0.12290 476976.000000
     29     31     1   0.13350 410032.000000
     25     27     1   0.14000 392459.200000
     22     23     1   0.13640 376560.000000
     22     25     1   0.14090 392459.200000
     20     22     1   0.14090 392459.200000
     18     20     1   0.14000 392459.200000
     17     18     1   0.14000 392459.200000
     17     27     1   0.14000 392459.200000
     14     17     1   0.15100 265265.600000
     12     14     1   0.15260 259408.000000
     12     29     1   0.15220 265265.600000
     10     12     1   0.14490 282001.600000
     41     42     1   0.12290 476976.000000
     41     43     1   0.13350 410032.000000
     38     39     1   0.12500 548940.800000
     38     40     1   0.12500 548940.800000
     35     38     1   0.15220 265265.600000
     33     35     1   0.15260 259408.000000
     33     41     1   0.15220 265265.600000
     31     33     1   0.14490 282001.600000
     55     56     1   0.12290 476976.000000
     55     57     1   0.13350 410032.000000
     53     55     1   0.15220 265265.600000
     50     53     1   0.15260 259408.000000
     47     50     1   0.15260 259408.000000
     44     47     1   0.15260 259408.000000
     43     44     1   0.14490 282001.600000
     43     53     1   0.14490 282001.600000
     70     71     1   0.12290 476976.000000
     70     72     1   0.13350 410032.000000
     67     68     1   0.12500 548940.800000
     67     69     1   0.12500 548940.800000
     64     67     1   0.15220 265265.600000
     61     64     1   0.15260 259408.000000
     59     61     1   0.15260 259408.000000
     59     70     1   0.15220 265265.600000
     57     59     1   0.14490 282001.600000
     84     85     1   0.12290 476976.000000
     84     86     1   0.13350 410032.000000
     76     78     1   0.15260 259408.000000
     76     82     1   0.14100 267776.000000
     74     76     1   0.15260 259408.000000
     74     84     1   0.15220 265265.600000
     72     74     1   0.14490 282001.600000
     91     92     1   0.12290 476976.000000
     91     93     1   0.13350 410032.000000
     88     91     1   0.15220 265265.600000
     86     88     1   0.14490 282001.600000
    105    106     1   0.12290 476976.000000
    105    107     1   0.13350 410032.000000
     97     99     1   0.15260 259408.000000
     97    103     1   0.14100 267776.000000
     95     97     1   0.15260 259408.000000
     95    105     1   0.15220 265265.600000
     93     95     1   0.14490 282001.600000
    129    130     1   0.12290 476976.000000
    129    131     1   0.13350 410032.000000
    126    128     1   0.14040 392459.200000
    124    126     1   0.14000 392459.200000
    122    124     1   0.14000 392459.200000
    120    122     1   0.14000 392459.200000
    119    120     1   0.14000 392459.200000
    119    128     1   0.14190 374049.600000
    117    119     1   0.13800 358150.400000
    115    117     1   0.13810 357313.600000
    114    115     1   0.13520 456892.800000
    114    128     1   0.14590 324678.400000
    111    114     1   0.14950 265265.600000
    109    111     1   0.15260 259408.000000
    109    129     1   0.15220 265265.600000
    107    109     1   0.14490 282001.600000
    136    137     1   0.12500 548940.800000
    136    138     1   0.12500 548940.800000
    133    136     1   0.15220 265265.600000
    131    133     1   0.14490 282001.600000
      5      6     1   0.10900 284512.000000
      5      7     1   0.10900 284512.000000
      1      2     1   0.10100 363171.200000
      1      3     1   0.10100 363171.200000
      1      4     1   0.10100 363171.200000
     27     28     1   0.10800 307105.600000
     25     26     1   0.10800 307105.600000
     23     24     1   0.09600 462750.400000
     20     21     1   0.10800 307105.600000
     18     19     1   0.10800 307105.600000
     14     15     1   0.10900 284512.000000
     14     16     1   0.10900 284512.000000
     12     13     1   0.10900 284512.000000
     10     11     1   0.10100 363171.200000
     35     36     1   0.10900 284512.000000
     35     37     1   0.10900 284512.000000
     33     34     1   0.10900 284512.000000
     31     32     1   0.10100 363171.200000
     53     54     1   0.10900 284512.000000
     50     51     1   0.10900 284512.000000
     50     52     1   0.10900 284512.000000
     47     48     1   0.10900 284512.000000
     47     49     1   0.10900 284512.000000
     44     45     1   0.10900 284512.000000
     44     46     1   0.10900 284512.000000
     64     65     1   0.10900 284512.000000
     64     66     1   0.10900 284512.000000
     61     62     1   0.10900 284512.000000
     61     63     1   0.10900 284512.000000
     59     60     1   0.10900 284512.000000
     57     58     1   0.10100 363171.200000
     82     83     1   0.09600 462750.400000
     78     79     1   0.10900 284512.000000
     78     80     1   0.10900 284512.000000
     78     81     1   0.10900 284512.000000
     76     77     1   0.10900 284512.000000
     74     75     1   0.10900 284512.000000
     72     73     1   0.10100 363171.200000
     88     89     1   0.10900 284512.000000
     88     90     1   0.10900 284512.000000
     86     87     1   0.10100 363171.200000
    103    104     1   0.09600 462750.400000
     99    100     1   0.10900 284512.000000
     99    101     1   0.10900 284512.000000
     99    102     1   0.10900 284512.000000
     97     98     1   0.10900 284512.000000
     95     96     1   0.10900 284512.000000
     93     94     1   0.10100 363171.200000
    126    127     1   0.10800 307105.600000
    124    125     1   0.10800 307105.600000
    122    123     1   0.10800 307105.600000
    120    121     1   0.10800 307105.600000
    117    118     1   0.10100 363171.200000
    115    116     1   0.10800 307105.600000
    111    112     1   0.10900 284512.000000
    111    113     1   0.10900 284512.000000
    109    110     1   0.10900 284512.000000
    107    108     1   0.10100 363171.200000
    133    134     1   0.10900 284512.000000
    133    135     1   0.10900 284512.000000
    131    132     1   0.10100 363171.200000

[ pairs ]
;    ai     aj funct         c0         c1         c2         c3
      9     12     1
      8     14     1
      8     29     1
      5     12     1
      1      9     1
      1     10     1
     30     33     1
     29     35     1
     29     41     1
     23     27     1
     20     27     1
     18     25     1
     18     23     1
     17     29     1
     17     22     1
     14     30     1
     14     31     1
     14     20     1
     14     25     1
     12     18     1
     12     27     1
     12     33     1
     10     17     1
     10     30     1
     10     31     1
     42     44     1
     42     53     1
     41     47     1
     41     50     1
     41     55     1
     38     41     1
     35     42     1
     35     43     1
     33     39     1
     33     40     1
     33     44     1
     33     53     1
     31     38     1
     31     42     1
     31     43     1
     56     59     1
     55     61     1
     55     70     1
     53     59     1
     50     56     1
     50     57     1
     47     55     1
     44     55     1
     43     56     1
     43     57     1
     71     74     1
     70     76     1
     70     84     1
     64     70     1
     61     71     1
     61     72     1
     61     68     1
     61     69     1
     59     67     1
     59     74     1
     57     64     1
     57     71     1
     57     72     1
     85     88     1
     84     91     1
     82     84     1
     78     84     1
     76     85     1
     76     86     1
     74     88     1
     72     78     1
     72     82     1
     72     85     1
     72     86     1
     92     95     1
     91     97     1
     91    105     1
     88     95     1
     86     92     1
     86     93     1
    106    109     1
    105    111     1
    105    129     1
    103    105     1
     99    105     1
     97    106     1
     97    107     1
     95    109     1
     93     99     1
     93    103     1
     93    106     1
     93    107     1
    130    133     1
    129    136     1
    122    128     1
    120    126     1
    119    124     1
    117    122     1
    117    126     1
    115    126     1
    115    120     1
    114    129     1
    114    120     1
    114    124     1
    111    130     1
    111    131     1
    111    117     1
    111    119     1
    111    126     1
    109    115     1
    109    128     1
    109    133     1
    107    114     1
    107    130     1
    107    131     1
    131    137     1
    131    138     1
      9     11     1
      8     13     1
      7      9     1
      7     10     1
      6      9     1
      6     10     1
      5     11     1
      4      6     1
      4      7     1
      4      8     1
      3      6     1
      3      7     1
      3      8     1
      2      6     1
      2      7     1
      2      8     1
     30     32     1
     29     34     1
     26     28     1
     24     25     1
     23     26     1
     22     28     1
     21     23     1
     21     25     1
     20     24     1
     20     26     1
     19     27     1
     19     21     1
     19     22     1
     18     28     1
     17     21     1
     17     26     1
     16     29     1
     16     18     1
     16     27     1
     15     29     1
     15     18     1
     15     27     1
     14     19     1
     14     28     1
     13     15     1
     13     16     1
     13     17     1
     13     30     1
     13     31     1
     12     32     1
     11     13     1
     11     14     1
     11     29     1
     10     15     1
     10     16     1
     41     45     1
     41     46     1
     41     54     1
     37     41     1
     37     39     1
     37     40     1
     36     41     1
     36     39     1
     36     40     1
     34     36     1
     34     37     1
     34     38     1
     34     42     1
     34     43     1
     32     34     1
     32     35     1
     32     41     1
     31     36     1
     31     37     1
     56     58     1
     55     60     1
     54     56     1
     54     57     1
     53     58     1
     52     54     1
     52     55     1
     51     54     1
     51     55     1
     49     51     1
     49     52     1
     49     53     1
     48     51     1
     48     52     1
     48     53     1
     47     54     1
     46     53     1
     46     48     1
     46     49     1
     46     50     1
     45     53     1
     45     48     1
     45     49     1
     45     50     1
     44     54     1
     44     51     1
     44     52     1
     43     48     1
     43     49     1
     43     51     1
     43     52     1
     71     73     1
     70     75     1
     66     68     1
     66     69     1
     65     68     1
     65     69     1
     63     70     1
     63     65     1
     63     66     1
     63     67     1
     62     70     1
     62     65     1
     62     66     1
     62     67     1
     60     62     1
     60     63     1
     60     64     1
     60     71     1
     60     72     1
     59     65     1
     59     66     1
     59     73     1
     58     60     1
     58     61     1
     58     70     1
     57     62     1
     57     63     1
     85     87     1
     84     89     1
     84     90     1
     81     82     1
     80     82     1
     79     82     1
     78     83     1
     77     84     1
     77     79     1
     77     80     1
     77     81     1
     77     83     1
     75     77     1
     75     78     1
     75     82     1
     75     85     1
     75     86     1
     74     79     1
     74     80     1
     74     81     1
     74     83     1
     74     87     1
     73     75     1
     73     76     1
     73     84     1
     72     77     1
     92     94     1
     91     96     1
     90     92     1
     90     93     1
     89     92     1
     89     93     1
     88     94     1
     87     89     1
     87     90     1
     87     91     1
    106    108     1
    105    110     1
    102    103     1
    101    103     1
    100    103     1
     99    104     1
     98    105     1
     98    100     1
     98    101     1
     98    102     1
     98    104     1
     96     98     1
     96     99     1
     96    103     1
     96    106     1
     96    107     1
     95    100     1
     95    101     1
     95    102     1
     95    104     1
     95    108     1
     94     96     1
     94     97     1
     94    105     1
     93     98     1
    130    132     1
    129    134     1
    129    135     1
    125    127     1
    125    128     1
    123    125     1
    123    126     1
    122    127     1
    121    128     1
    121    123     1
    121    124     1
    120    125     1
    119    123     1
    119    127     1
    118    120     1
    118    128     1
    117    121     1
    116    128     1
    116    118     1
    116    119     1
    114    118     1
    114    127     1
    113    129     1
    113    115     1
    113    128     1
    112    129     1
    112    115     1
    112    128     1
    111    116     1
    110    112     1
    110    113     1
    110    114     1
    110    130     1
    110    131     1
    109    132     1
    108    110     1
    108    111     1
    108    129     1
    107    112     1
    107    113     1
    135    137     1
    135    138     1
    134    137     1
    134    138     1
    132    134     1
    132    135     1
    132    136     1

[ angles ]
;    ai     aj     ak funct         c0         c1         c2         c3
      9      8     10     1   122.9000527 669.440000
      8     10     12     1   121.9000522 418.400000
      5      8      9     1   120.4000516 669.440000
      5      8     10     1   116.6000500 585.760000
      1      5      8     1   111.2000477 669.440000
     30     29     31     1   122.9000527 669.440000
     29     31     33     1   121.9000522 418.400000
     23     22     25     1   120.0000514 585.760000
     22     25     27     1   120.0000514 527.184000
     20     22     23     1   120.0000514 585.760000
     20     22     25     1   120.0000514 527.184000
     18     17     27     1   120.0000514 527.184000
     18     20     22     1   120.0000514 527.184000
     17     18     20     1   120.0000514 527.184000
     17     27     25     1   120.0000514 527.184000
     14     12     29     1   111.1000476 527.184000
     14     17     18     1   120.0000514 585.760000
     14     17     27     1   120.0000514 585.760000
     12     14     17     1   114.0000489 527.184000
     12     29     30     1   120.4000516 669.440000
     12     29     31     1   116.6000500 585.760000
     10     12     14     1   109.7000470 669.440000
     10     12     29     1   110.1000472 527.184000
     42     41     43     1   122.9000527 669.440000
     41     43     44     1   121.9000522 418.400000
     41     43     53     1   121.9000522 418.400000
     39     38     40     1   126.0000540 669.440000
     35     33     41     1   111.1000476 527.184000
     35     38     39     1   117.0000501 585.760000
     35     38     40     1   117.0000501 585.760000
     33     35     38     1   111.1000476 527.184000
     33     41     42     1   120.4000516 669.440000
     33     41     43     1   116.6000500 585.760000
     31     33     35     1   109.7000470 669.440000
     31     33     41     1   110.1000472 527.184000
     56     55     57     1   122.9000527 669.440000
     55     57     59     1   121.9000522 418.400000
     53     55     56     1   120.4000516 669.440000
     53     55     57     1   116.6000500 585.760000
     50     53     55     1   111.1000476 527.184000
     47     50     53     1   109.5000469 334.720000
     44     43     53     1   118.0000506 418.400000
     44     47     50     1   109.5000469 334.720000
     43     44     47     1   109.7000470 669.440000
     43     53     50     1   109.7000470 669.440000
     43     53     55     1   110.1000472 527.184000
     71     70     72     1   122.9000527 669.440000
     70     72     74     1   121.9000522 418.400000
     68     67     69     1   126.0000540 669.440000
     64     67     68     1   117.0000501 585.760000
     64     67     69     1   117.0000501 585.760000
     61     59     70     1   111.1000476 527.184000
     61     64     67     1   111.1000476 527.184000
     59     61     64     1   109.5000469 334.720000
     59     70     71     1   120.4000516 669.440000
     59     70     72     1   116.6000500 585.760000
     57     59     61     1   109.7000470 669.440000
     57     59     70     1   110.1000472 527.184000
     85     84     86     1   122.9000527 669.440000
     84     86     88     1   121.9000522 418.400000
     78     76     82     1   109.5000469 418.400000
     76     74     84     1   111.1000476 527.184000
     74     76     78     1   109.5000469 334.720000
     74     76     82     1   109.5000469 418.400000
     74     84     85     1   120.4000516 669.440000
     74     84     86     1   116.6000500 585.760000
     72     74     76     1   109.7000470 669.440000
     72     74     84     1   110.1000472 527.184000
     92     91     93     1   122.9000527 669.440000
     91     93     95     1   121.9000522 418.400000
     88     91     92     1   120.4000516 669.440000
     88     91     93     1   116.6000500 585.760000
     86     88     91     1   110.1000472 527.184000
    106    105    107     1   122.9000527 669.440000
    105    107    109     1   121.9000522 418.400000
     99     97    103     1   109.5000469 418.400000
     97     95    105     1   111.1000476 527.184000
     95     97     99     1   109.5000469 334.720000
     95     97    103     1   109.5000469 418.400000
     95    105    106     1   120.4000516 669.440000
     95    105    107     1   116.6000500 585.760000
     93     95     97     1   109.7000470 669.440000
     93     95    105     1   110.1000472 527.184000
    130    129    131     1   122.9000527 669.440000
    129    131    133     1   121.9000522 418.400000
    124    126    128     1   120.0000514 527.184000
    122    124    126     1   120.0000514 527.184000
    120    119    128     1   122.7000526 527.184000
    120    122    124     1   120.0000514 527.184000
    119    120    122     1   120.0000514 527.184000
    119    128    126     1   116.2000498 527.184000
    117    119    120     1   132.8000569 585.760000
    117    119    128     1   104.4000447 585.760000
    115    114    128     1   106.4000456 527.184000
    115    117    119     1   111.6000478 585.760000
    114    115    117     1   108.7000466 585.760000
    114    128    119     1   108.8000466 527.184000
    114    128    126     1   134.9000578 527.184000
    111    109    129     1   111.1000476 527.184000
    111    114    115     1   125.0000536 585.760000
    111    114    128     1   128.6000551 585.760000
    109    111    114     1   115.6000495 527.184000
    109    129    130     1   120.4000516 669.440000
    109    129    131     1   116.6000500 585.760000
    107    109    111     1   109.7000470 669.440000
    107    109    129     1   110.1000472 527.184000
    137    136    138     1   126.0000540 669.440000
    133    136    137     1   117.0000501 585.760000
    133    136    138     1   117.0000501 585.760000
    131    133    136     1   110.1000472 527.184000
      8     10     11     1   120.0000514 418.400000
      7      5      8     1   109.5000469 418.400000
      6      5      7     1   109.5000469 292.880000
      6      5      8     1   109.5000469 418.400000
      4      1      5     1   109.5000469 418.400000
      3      1      4     1   109.5000469 292.880000
      3      1      5     1   109.5000469 418.400000
      2      1      3     1   109.5000469 292.880000
      2      1      4     1   109.5000469 292.880000
      2      1      5     1   109.5000469 418.400000
      1      5      6     1   109.5000469 418.400000
      1      5      7     1   109.5000469 418.400000
     29     31     32     1   120.0000514 418.400000
     26     25     27     1   120.0000514 418.400000
     25     27     28     1   120.0000514 418.400000
     22     23     24     1   113.0000484 418.400000
     22     25     26     1   120.0000514 418.400000
     21     20     22     1   120.0000514 418.400000
     19     18     20     1   120.0000514 418.400000
     18     20     21     1   120.0000514 418.400000
     17     18     19     1   120.0000514 418.400000
     17     27     28     1   120.0000514 418.400000
     16     14     17     1   109.5000469 418.400000
     15     14     16     1   109.5000469 292.880000
     15     14     17     1   109.5000469 418.400000
     13     12     14     1   109.5000469 418.400000
     13     12     29     1   109.5000469 418.400000
     12     14     15     1   109.5000469 418.400000
     12     14     16     1   109.5000469 418.400000
     11     10     12     1   118.0400505 418.400000
     10     12     13     1   109.5000469 418.400000
     37     35     38     1   109.5000469 418.400000
     36     35     37     1   109.5000469 292.880000
     36     35     38     1   109.5000469 418.400000
     34     33     35     1   109.5000469 418.400000
     34     33     41     1   109.5000469 418.400000
     33     35     36     1   109.5000469 418.400000
     33     35     37     1   109.5000469 418.400000
     32     31     33     1   118.0400505 418.400000
     31     33     34     1   109.5000469 418.400000
     55     57     58     1   120.0000514 418.400000
     54     53     55     1   109.5000469 418.400000
     52     50     53     1   109.5000469 418.400000
     51     50     52     1   109.5000469 292.880000
     51     50     53     1   109.5000469 418.400000
     50     53     54     1   109.5000469 418.400000
     49     47     50     1   109.5000469 418.400000
     48     47     49     1   109.5000469 292.880000
     48     47     50     1   109.5000469 418.400000
     47     50     51     1   109.5000469 418.400000
     47     50     52     1   109.5000469 418.400000
     46     44     47     1   109.5000469 418.400000
     45     44     46     1   109.5000469 292.880000
     45     44     47     1   109.5000469 418.400000
     44     47     48     1   109.5000469 418.400000
     44     47     49     1   109.5000469 418.400000
     43     44     45     1   109.5000469 418.400000
     43     44     46     1   109.5000469 418.400000
     43     53     54     1   109.5000469 418.400000
     70     72     73     1   120.0000514 418.400000
     66     64     67     1   109.5000469 418.400000
     65     64     66     1   109.5000469 292.880000
     65     64     67     1   109.5000469 418.400000
     63     61     64     1   109.5000469 418.400000
     62     61     63     1   109.5000469 292.880000
     62     61     64     1   109.5000469 418.400000
     61     64     65     1   109.5000469 418.400000
     61     64     66     1   109.5000469 418.400000
     60     59     61     1   109.5000469 418.400000
     60     59     70     1   109.5000469 418.400000
     59     61     62     1   109.5000469 418.400000
     59     61     63     1   109.5000469 418.400000
     58     57     59     1   118.0400505 418.400000
     57     59     60     1   109.5000469 418.400000
     84     86     87     1   120.0000514 418.400000
     80     78     81     1   109.5000469 292.880000
     79     78     80     1   109.5000469 292.880000
     79     78     81     1   109.5000469 292.880000
     77     76     78     1   109.5000469 418.400000
     77     76     82     1   109.5000469 418.400000
     76     78     79     1   109.5000469 418.400000
     76     78     80     1   109.5000469 418.400000
     76     78     81     1   109.5000469 418.400000
     76     82     83     1   108.5000465 460.240000
     75     74     76     1   109.5000469 418.400000
     75     74     84     1   109.5000469 418.400000
     74     76     77     1   109.5000469 418.400000
     73     72     74     1   118.0400505 418.400000
     72     74     75     1   109.5000469 418.400000
     91     93     94     1   120.0000514 418.400000
     90     88     91     1   109.5000469 418.400000
     89     88     90     1   109.5000469 292.880000
     89     88     91     1   109.5000469 418.400000
     87     86     88     1   118.0400505 418.400000
     86     88     89     1   109.5000469 418.400000
     86     88     90     1   109.5000469 418.400000
    105    107    108     1   120.0000514 418.400000
    101     99    102     1   109.5000469 292.880000
    100     99    101     1   109.5000469 292.880000
    100     99    102     1   109.5000469 292.880000
     98     97     99     1   109.5000469 418.400000
     98     97    103     1   109.5000469 418.400000
     97     99    100     1   109.5000469 418.400000
     97     99    101     1   109.5000469 418.400000
     97     99    102     1   109.5000469 418.400000
     97    103    104     1   108.5000465 460.240000
     96     95     97     1   109.5000469 418.400000
     96     95    105     1   109.5000469 418.400000
     95     97     98     1   109.5000469 418.400000
     94     93     95     1   118.0400505 418.400000
     93     95     96     1   109.5000469 418.400000
    129    131    132     1   120.0000514 418.400000
    127    126    128     1   120.0000514 418.400000
    125    124    126     1   120.0000514 418.400000
    124    126    127     1   120.0000514 418.400000
    123    122    124     1   120.0000514 418.400000
    122    124    125     1   120.0000514 418.400000
    121    120    122     1   120.0000514 418.400000
    120    122    123     1   120.0000514 418.400000
    119    120    121     1   120.0000514 418.400000
    118    117    119     1   123.1000528 418.400000
    116    115    117     1   120.0000514 418.400000
    115    117    118     1   120.0000514 418.400000
    114    115    116     1   120.0000514 418.400000
    113    111    114     1   109.5000469 418.400000
    112    111    113     1   109.5000469 292.880000
    112    111    114     1   109.5000469 418.400000
    110    109    111     1   109.5000469 418.400000
    110    109    129     1   109.5000469 418.400000
    109    111    112     1   109.5000469 418.400000
    109    111    113     1   109.5000469 418.400000
    108    107    109     1   118.0400505 418.400000
    107    109    110     1   109.5000469 418.400000
    135    133    136     1   109.5000469 418.400000
    134    133    135     1   109.5000469 292.880000
    134    133    136     1   109.5000469 418.400000
    132    131    133     1   118.0400505 418.400000
    131    133    134     1   109.5000469 418.400000
    131    133    135     1   109.5000469 418.400000

[ dihedrals ]
;    ai     aj     ak     al funct         c0         c1         c2         c3         c4         c5
      9      8     10     12     1  180.0000771  10.4600000  2
      8     10     12     14     1  0.0000000  8.3680000  1
      8     10     12     14     1  0.0000000  8.3680000  2
      8     10     12     14     1  0.0000000  1.6736000  3
      8     10     12     14     1  0.0000000  0.0000000  4
      8     10     12     29     1  0.0000000  0.0000000  1
      8     10     12     29     1  0.0000000  1.1296800  2
      8     10     12     29     1  0.0000000  1.7572800  3
      8     10     12     29     1  0.0000000  0.0000000  4
      5      8     10     12     1  180.0000771  10.4600000  2
      1      5      8      9     1  0.0000000  0.0000000  2
      1      5      8     10     1  0.0000000  0.0000000  2
     30     29     31     33     1  180.0000771  10.4600000  2
     29     31     33     35     1  0.0000000  8.3680000  1
     29     31     33     35     1  0.0000000  8.3680000  2
     29     31     33     35     1  0.0000000  1.6736000  3
     29     31     33     35     1  0.0000000  0.0000000  4
     29     31     33     41     1  0.0000000  0.0000000  1
     29     31     33     41     1  0.0000000  1.1296800  2
     29     31     33     41     1  0.0000000  1.7572800  3
     29     31     33     41     1  0.0000000  0.0000000  4
     23     22     25     27     1  180.0000771  15.1670000  2
     20     18     17     27     1  180.0000771  15.1670000  2
     20     22     25     27     1  180.0000771  15.1670000  2
     18     17     27     25     1  180.0000771  15.1670000  2
     18     20     22     23     1  180.0000771  15.1670000  2
     18     20     22     25     1  180.0000771  15.1670000  2
     17     14     12     29     1  0.0000000  0.2301200  1
     17     14     12     29     1  180.0000771  1.9622960  2
     17     14     12     29     1  0.0000000  0.8033280  3
     17     14     12     29     1  180.0000771  0.0502080  4
     17     18     20     22     1  180.0000771  15.1670000  2
     17     27     25     22     1  180.0000771  15.1670000  2
     14     12     29     30     1  0.0000000  0.0000000  2
     14     12     29     31     1  0.0000000  0.8368000  1
     14     12     29     31     1  0.0000000  0.8368000  2
     14     12     29     31     1  0.0000000  1.6736000  3
     14     12     29     31     1  0.0000000  0.0000000  4
     14     17     18     20     1  180.0000771  15.1670000  2
     14     17     27     25     1  180.0000771  15.1670000  2
     12     14     17     18     1  0.0000000  0.0000000  1
     12     14     17     18     1  180.0000771  0.2886960  2
     12     14     17     18     1  0.0000000  0.0000000  3
     12     14     17     18     1  180.0000771  0.2008320  4
     12     14     17     27     1  0.0000000  0.0000000  1
     12     14     17     27     1  180.0000771  0.2886960  2
     12     14     17     27     1  0.0000000  0.0000000  3
     12     14     17     27     1  180.0000771  0.2008320  4
     12     29     31     33     1  180.0000771  10.4600000  2
     10     12     14     17     1  180.0000771  0.0502080  1
     10     12     14     17     1  180.0000771  1.2133600  2
     10     12     14     17     1  0.0000000  0.8033280  3
     10     12     14     17     1  180.0000771  0.0292880  4
     10     12     29     30     1  0.0000000  0.0000000  2
     10     12     29     31     1  180.0000771  1.8828000  1
     10     12     29     31     1  180.0000771  6.6107200  2
     10     12     29     31     1  180.0000771  2.3012000  3
     10     12     29     31     1  0.0000000  0.0000000  4
     42     41     43     44     1  180.0000771  10.4600000  2
     42     41     43     53     1  180.0000771  10.4600000  2
     41     43     44     47     1  0.0000000  8.3680000  1
     41     43     44     47     1  0.0000000  8.3680000  2
     41     43     44     47     1  0.0000000  1.6736000  3
     41     43     44     47     1  0.0000000  0.0000000  4
     41     43     53     50     1  0.0000000  8.3680000  1
     41     43     53     50     1  0.0000000  8.3680000  2
     41     43     53     50     1  0.0000000  1.6736000  3
     41     43     53     50     1  0.0000000  0.0000000  4
     41     43     53     55     1  0.0000000  0.0000000  1
     41     43     53     55     1  0.0000000  1.1296800  2
     41     43     53     55     1  0.0000000  1.7572800  3
     41     43     53     55     1  0.0000000  0.0000000  4
     38     35     33     41     1  0.0000000  1.7740160  1
     38     35     33     41     1  180.0000771  1.9204560  2
     38     35     33     41     1  0.0000000  0.2426720  3
     38     35     33     41     1  0.0000000  0.6443360  4
     35     33     41     42     1  0.0000000  0.0000000  2
     35     33     41     43     1  0.0000000  0.8368000  1
     35     33     41     43     1  0.0000000  0.8368000  2
     35     33     41     43     1  0.0000000  1.6736000  3
     35     33     41     43     1  0.0000000  0.0000000  4
     33     35     38     39     1  0.0000000  0.0000000  1
     33     35     38     39     1  180.0000771  3.2174960  2
     33     35     38     39     1  0.0000000  0.0000000  3
     33     35     38     39     1  180.0000771  0.1297040  4
     33     35     38     40     1  0.0000000  0.0000000  1
     33     35     38     40     1  180.0000771  3.2174960  2
     33     35     38     40     1  0.0000000  0.0000000  3
     33     35     38     40     1  180.0000771  0.1297040  4
     33     41     43     44     1  180.0000771  10.4600000  2
     33     41     43     53     1  180.0000771  10.4600000  2
     31     33     35     38     1  180.0000771  9.0123360  1
     31     33     35     38     1  180.0000771  2.7070480  2
     31     33     35     38     1  0.0000000  0.2426720  3
     31     33     35     38     1  0.0000000  0.3723760  4
     31     33     41     42     1  0.0000000  0.0000000  2
     31     33     41     43     1  180.0000771  1.8828000  1
     31     33     41     43     1  180.0000771  6.6107200  2
     31     33     41     43     1  180.0000771  2.3012000  3
     31     33     41     43     1  0.0000000  0.0000000  4
     56     55     57     59     1  180.0000771  10.4600000  2
     55     57     59     61     1  0.0000000  8.3680000  1
     55     57     59     61     1  0.0000000  8.3680000  2
     55     57     59     61     1  0.0000000  1.6736000  3
     55     57     59     61     1  0.0000000  0.0000000  4
     55     57     59     70     1  0.0000000  0.0000000  1
     55     57     59     70     1  0.0000000  1.1296800  2
     55     57     59     70     1  0.0000000  1.7572800  3
     55     57     59     70     1  0.0000000  0.0000000  4
     53     55     57     59     1  180.0000771  10.4600000  2
     50     53     55     56     1  0.0000000  0.0000000  2
     50     53     55     57     1  0.0000000  0.8368000  1
     50     53     55     57     1  0.0000000  0.8368000  2
     50     53     55     57     1  0.0000000  1.6736000  3
     50     53     55     57     1  0.0000000  0.0000000  4
     47     44     43     53     1  0.0000000  0.0000000  2
     47     50     53     55     1  0.0000000  0.6508444  3
     44     43     53     50     1  0.0000000  0.0000000  2
     44     43     53     55     1  0.0000000  0.0000000  2
     44     47     50     53     1  180.0000771  0.8368000  1
     44     47     50     53     1  180.0000771  1.0460000  2
     44     47     50     53     1  0.0000000  0.7531200  3
     43     44     47     50     1  0.0000000  0.6508444  3
     43     53     50     47     1  0.0000000  0.6508444  3
     43     53     55     56     1  0.0000000  0.0000000  2
     43     53     55     57     1  180.0000771  1.8828000  1
     43     53     55     57     1  180.0000771  6.6107200  2
     43     53     55     57     1  180.0000771  2.3012000  3
     43     53     55     57     1  0.0000000  0.0000000  4
     71     70     72     74     1  180.0000771  10.4600000  2
     70     72     74     76     1  0.0000000  8.3680000  1
     70     72     74     76     1  0.0000000  8.3680000  2
     70     72     74     76     1  0.0000000  1.6736000  3
     70     72     74     76     1  0.0000000  0.0000000  4
     70     72     74     84     1  0.0000000  0.0000000  1
     70     72     74     84     1  0.0000000  1.1296800  2
     70     72     74     84     1  0.0000000  1.7572800  3
     70     72     74     84     1  0.0000000  0.0000000  4
     64     61     59     70     1  180.0000771  1.7614640  1
     64     61     59     70     1  180.0000771  1.6443120  2
     64     61     59     70     1  0.0000000  0.6024960  3
     64     61     59     70     1  0.0000000  0.6066800  4
     61     59     70     71     1  0.0000000  0.0000000  2
     61     59     70     72     1  0.0000000  0.8368000  1
     61     59     70     72     1  0.0000000  0.8368000  2
     61     59     70     72     1  0.0000000  1.6736000  3
     61     59     70     72     1  0.0000000  0.0000000  4
     61     64     67     68     1  180.0000771  1.6317600  2
     61     64     67     68     1  0.0000000  0.2677760  4
     61     64     67     69     1  180.0000771  1.6317600  2
     61     64     67     69     1  0.0000000  0.2677760  4
     59     61     64     67     1  180.0000771  5.7195280  1
     59     61     64     67     1  180.0000771  0.9288480  2
     59     61     64     67     1  180.0000771  2.5438720  3
     59     61     64     67     1  180.0000771  0.2343040  4
     59     70     72     74     1  180.0000771  10.4600000  2
     57     59     61     64     1  180.0000771  0.4184000  1
     57     59     61     64     1  180.0000771  0.7698560  2
     57     59     61     64     1  0.0000000  0.6024960  3
     57     59     61     64     1  0.0000000  0.3263520  4
     57     59     70     71     1  0.0000000  0.0000000  2
     57     59     70     72     1  180.0000771  1.8828000  1
     57     59     70     72     1  180.0000771  6.6107200  2
     57     59     70     72     1  180.0000771  2.3012000  3
     57     59     70     72     1  0.0000000  0.0000000  4
     85     84     86     88     1  180.0000771  10.4600000  2
     84     86     88     91     1  0.0000000  0.0000000  1
     84     86     88     91     1  0.0000000  1.1296800  2
     84     86     88     91     1  0.0000000  1.7572800  3
     84     86     88     91     1  0.0000000  0.0000000  4
     82     76     74     84     1  180.0000771  2.9162480  1
     82     76     74     84     1  180.0000771  0.4978960  2
     82     76     74     84     1  0.0000000  1.3179600  3
     82     76     74     84     1  0.0000000  0.6527040  4
     78     76     74     84     1  180.0000771  1.6987040  1
     78     76     74     84     1  180.0000771  1.2091760  2
     78     76     74     84     1  0.0000000  0.6192320  3
     78     76     74     84     1  0.0000000  0.4686080  4
     76     74     84     85     1  0.0000000  0.0000000  2
     76     74     84     86     1  0.0000000  0.8368000  1
     76     74     84     86     1  0.0000000  0.8368000  2
     76     74     84     86     1  0.0000000  1.6736000  3
     76     74     84     86     1  0.0000000  0.0000000  4
     74     84     86     88     1  180.0000771  10.4600000  2
     72     74     76     78     1  0.0000000  1.4100080  1
     72     74     76     78     1  180.0000771  0.9037440  2
     72     74     76     78     1  0.0000000  0.6192320  3
     72     74     76     78     1  180.0000771  0.0041840  4
     72     74     76     82     1  0.0000000  2.8200160  1
     72     74     76     82     1  0.0000000  0.0251040  2
     72     74     76     82     1  0.0000000  1.3179600  3
     72     74     76     82     1  0.0000000  0.3974800  4
     72     74     84     85     1  0.0000000  0.0000000  2
     72     74     84     86     1  180.0000771  1.8828000  1
     72     74     84     86     1  180.0000771  6.6107200  2
     72     74     84     86     1  180.0000771  2.3012000  3
     72     74     84     86     1  0.0000000  0.0000000  4
     92     91     93     95     1  180.0000771  10.4600000  2
     91     93     95     97     1  0.0000000  8.3680000  1
     91     93     95     97     1  0.0000000  8.3680000  2
     91     93     95     97     1  0.0000000  1.6736000  3
     91     93     95     97     1  0.0000000  0.0000000  4
     91     93     95    105     1  0.0000000  0.0000000  1
     91     93     95    105     1  0.0000000  1.1296800  2
     91     93     95    105     1  0.0000000  1.7572800  3
     91     93     95    105     1  0.0000000  0.0000000  4
     88     91     93     95     1  180.0000771  10.4600000  2
     86     88     91     92     1  0.0000000  0.0000000  2
     86     88     91     93     1  180.0000771  1.8828000  1
     86     88     91     93     1  180.0000771  6.6107200  2
     86     88     91     93     1  180.0000771  2.3012000  3
     86     88     91     93     1  0.0000000  0.0000000  4
    106    105    107    109     1  180.0000771  10.4600000  2
    105    107    109    111     1  0.0000000  8.3680000  1
    105    107    109    111     1  0.0000000  8.3680000  2
    105    107    109    111     1  0.0000000  1.6736000  3
    105    107    109    111     1  0.0000000  0.0000000  4
    105    107    109    129     1  0.0000000  0.0000000  1
    105    107    109    129     1  0.0000000  1.1296800  2
    105    107    109    129     1  0.0000000  1.7572800  3
    105    107    109    129     1  0.0000000  0.0000000  4
    103     97     95    105     1  180.0000771  2.9162480  1
    103     97     95    105     1  180.0000771  0.4978960  2
    103     97     95    105     1  0.0000000  1.3179600  3
    103     97     95    105     1  0.0000000  0.6527040  4
     99     97     95    105     1  180.0000771  1.6987040  1
     99     97     95    105     1  180.0000771  1.2091760  2
     99     97     95    105     1  0.0000000  0.6192320  3
     99     97     95    105     1  0.0000000  0.4686080  4
     97     95    105    106     1  0.0000000  0.0000000  2
     97     95    105    107     1  0.0000000  0.8368000  1
     97     95    105    107     1  0.0000000  0.8368000  2
     97     95    105    107     1  0.0000000  1.6736000  3
     97     95    105    107     1  0.0000000  0.0000000  4
     95    105    107    109     1  180.0000771  10.4600000  2
     93     95     97     99     1  0.0000000  1.4100080  1
     93     95     97     99     1  180.0000771  0.9037440  2
     93     95     97     99     1  0.0000000  0.6192320  3
     93     95     97     99     1  180.0000771  0.0041840  4
     93     95     97    103     1  0.0000000  2.8200160  1
     93     95     97    103     1  0.0000000  0.0251040  2
     93     95     97    103     1  0.0000000  1.3179600  3
     93     95     97    103     1  0.0000000  0.3974800  4
     93     95    105    106     1  0.0000000  0.0000000  2
     93     95    105    107     1  180.0000771  1.8828000  1
     93     95    105    107     1  180.0000771  6.6107200  2
     93     95    105    107     1  180.0000771  2.3012000  3
     93     95    105    107     1  0.0000000  0.0000000  4
    130    129    131    133     1  180.0000771  10.4600000  2
    129    131    133    136     1  0.0000000  0.0000000  1
    129    131    133    136     1  0.0000000  1.1296800  2
    129    131    133    136     1  0.0000000  1.7572800  3
    129    131    133    136     1  0.0000000  0.0000000  4
    122    120    119    128     1  180.0000771  15.1670000  2
    122    124    126    128     1  180.0000771  15.1670000  2
    120    119    128    126     1  180.0000771  12.5520000  2
    120    122    124    126     1  180.0000771  15.1670000  2
    119    120    122    124     1  180.0000771  15.1670000  2
    119    128    126    124     1  180.0000771  14.6440000  2
    117    115    114    128     1  180.0000771  27.3006000  2
    117    119    120    122     1  180.0000771  15.1670000  2
    117    119    128    126     1  180.0000771  12.5520000  2
    115    114    128    119     1  180.0000771  7.0082000  2
    115    114    128    126     1  180.0000771  7.0082000  2
    115    117    119    120     1  180.0000771  6.3806000  2
    115    117    119    128     1  180.0000771  6.3806000  2
    114    111    109    129     1  180.0000771  0.0711280  1
    114    111    109    129     1  180.0000771  1.4769520  2
    114    111    109    129     1  0.0000000  0.9790560  3
    114    111    109    129     1  0.0000000  0.3096160  4
    114    115    117    119     1  180.0000771  6.2760000  2
    114    128    119    117     1  180.0000771  12.5520000  2
    114    128    119    120     1  180.0000771  12.5520000  2
    114    128    126    124     1  180.0000771  14.6440000  2
    111    109    129    130     1  0.0000000  0.0000000  2
    111    109    129    131     1  0.0000000  0.8368000  1
    111    109    129    131     1  0.0000000  0.8368000  2
    111    109    129    131     1  0.0000000  1.6736000  3
    111    109    129    131     1  0.0000000  0.0000000  4
    111    114    115    117     1  180.0000771  27.3006000  2
    111    114    128    119     1  180.0000771  7.0082000  2
    111    114    128    126     1  180.0000771  7.0082000  2
    109    111    114    115     1  0.0000000  0.0000000  1
    109    111    114    115     1  0.0000000  0.0000000  2
    109    111    114    115     1  0.0000000  0.0000000  3
    109    111    114    115     1  0.0000000  0.0000000  4
    109    111    114    128     1  0.0000000  1.5271600  1
    109    111    114    128     1  0.0000000  1.7070720  2
    109    111    114    128     1  0.0000000  3.4266960  3
    109    111    114    128     1  180.0000771  0.3974800  4
    109    129    131    133     1  180.0000771  10.4600000  2
    107    109    111    114     1  0.0000000  0.3305360  1
    107    109    111    114     1  180.0000771  1.3095920  2
    107    109    111    114     1  0.0000000  0.9790560  3
    107    109    111    114     1  0.0000000  0.1297040  4
    107    109    129    130     1  0.0000000  0.0000000  2
    107    109    129    131     1  180.0000771  1.8828000  1
    107    109    129    131     1  180.0000771  6.6107200  2
    107    109    129    131     1  180.0000771  2.3012000  3
    107    109    129    131     1  0.0000000  0.0000000  4
    131    133    136    137     1  0.0000000  0.0000000  2
    131    133    136    138     1  0.0000000  0.0000000  2
      5     10      8      9     4  180.0000771  43.9320000  2
     12     31     29     30     4  180.0000771  43.9320000  2
     20     25     22     23     4  180.0000771  4.6024000  2
     18     27     17     14     4  180.0000771  4.6024000  2
     33     43     41     42     4  180.0000771  43.9320000  2
     35     39     38     40     4  180.0000771  43.9320000  2
     53     57     55     56     4  180.0000771  43.9320000  2
     41     44     43     53     4  180.0000771  4.1840000  2
     59     72     70     71     4  180.0000771  43.9320000  2
     64     68     67     69     4  180.0000771  43.9320000  2
     74     86     84     85     4  180.0000771  43.9320000  2
     88     93     91     92     4  180.0000771  43.9320000  2
     95    107    105    106     4  180.0000771  43.9320000  2
    109    131    129    130     4  180.0000771  43.9320000  2
    128    111    114    115     4  180.0000771  4.6024000  2
    133    137    136    138     4  180.0000771  43.9320000  2
      9      8     10     11     1  0.0000000  8.3680000  1
      9      8     10     11     1  180.0000771  10.4600000  2
      8     10     12     13     1  0.0000000  0.0000000  2
      7      5      8      9     1  0.0000000  0.0000000  2
      7      5      8     10     1  0.0000000  0.0000000  2
      6      5      8      9     1  0.0000000  0.0000000  2
      6      5      8     10     1  0.0000000  0.0000000  2
      5      8     10     11     1  180.0000771  10.4600000  2
      4      1      5      6     1  0.0000000  0.6508444  3
      4      1      5      7     1  0.0000000  0.6508444  3
      4      1      5      8     1  0.0000000  0.6508444  3
      3      1      5      6     1  0.0000000  0.6508444  3
      3      1      5      7     1  0.0000000  0.6508444  3
      3      1      5      8     1  0.0000000  0.6508444  3
      2      1      5      6     1  0.0000000  0.6508444  3
      2      1      5      7     1  0.0000000  0.6508444  3
      2      1      5      8     1  0.0000000  0.6508444  3
     30     29     31     32     1  0.0000000  8.3680000  1
     30     29     31     32     1  180.0000771  10.4600000  2
     29     31     33     34     1  0.0000000  0.0000000  2
     26     25     27     28     1  180.0000771  15.1670000  2
     24     23     22     25     1  0.0000000  0.0000000  1
     24     23     22     25     1  180.0000771  3.6944720  2
     24     23     22     25     1  0.0000000  0.0000000  3
     24     23     22     25     1  0.0000000  0.2719600  4
     23     22     25     26     1  180.0000771  15.1670000  2
     22     25     27     28     1  180.0000771  15.1670000  2
     21     20     22     23     1  180.0000771  15.1670000  2
     21     20     22     25     1  180.0000771  15.1670000  2
     20     22     23     24     1  0.0000000  0.0000000  1
     20     22     23     24     1  180.0000771  3.6944720  2
     20     22     23     24     1  0.0000000  0.0000000  3
     20     22     23     24     1  0.0000000  0.2719600  4
     20     22     25     26     1  180.0000771  15.1670000  2
     19     18     17     27     1  180.0000771  15.1670000  2
     19     18     20     21     1  180.0000771  15.1670000  2
     19     18     20     22     1  180.0000771  15.1670000  2
     18     17     27     28     1  180.0000771  15.1670000  2
     17     18     20     21     1  180.0000771  15.1670000  2
     17     27     25     26     1  180.0000771  15.1670000  2
     16     14     12     29     1  0.0000000  0.6508444  3
     16     14     17     18     1  0.0000000  0.0000000  2
     16     14     17     27     1  0.0000000  0.0000000  2
     15     14     12     29     1  0.0000000  0.6508444  3
     15     14     17     18     1  0.0000000  0.0000000  2
     15     14     17     27     1  0.0000000  0.0000000  2
     14     17     18     19     1  180.0000771  15.1670000  2
     14     17     27     28     1  180.0000771  15.1670000  2
     13     12     14     15     1  0.0000000  0.6508444  3
     13     12     14     16     1  0.0000000  0.6508444  3
     13     12     14     17     1  0.0000000  0.6508444  3
     13     12     29     30     1  0.0000000  3.3472000  1
     13     12     29     30     1  0.0000000  0.0000000  2
     13     12     29     30     1  180.0000771  0.3347200  3
     13     12     29     31     1  0.0000000  0.0000000  2
     12     29     31     32     1  180.0000771  10.4600000  2
     11     10     12     13     1  0.0000000  0.0000000  2
     11     10     12     14     1  0.0000000  0.0000000  2
     11     10     12     29     1  0.0000000  0.0000000  2
     10     12     14     15     1  0.0000000  0.6508444  3
     10     12     14     16     1  0.0000000  0.6508444  3
     41     43     44     45     1  0.0000000  0.0000000  2
     41     43     44     46     1  0.0000000  0.0000000  2
     41     43     53     54     1  0.0000000  0.0000000  2
     37     35     33     41     1  0.0000000  0.6508444  3
     37     35     38     39     1  0.0000000  0.0000000  2
     37     35     38     40     1  0.0000000  0.0000000  2
     36     35     33     41     1  0.0000000  0.6508444  3
     36     35     38     39     1  0.0000000  0.0000000  2
     36     35     38     40     1  0.0000000  0.0000000  2
     34     33     35     36     1  0.0000000  0.6508444  3
     34     33     35     37     1  0.0000000  0.6508444  3
     34     33     35     38     1  0.0000000  0.6508444  3
     34     33     41     42     1  0.0000000  3.3472000  1
     34     33     41     42     1  0.0000000  0.0000000  2
     34     33     41     42     1  180.0000771  0.3347200  3
     34     33     41     43     1  0.0000000  0.0000000  2
     32     31     33     34     1  0.0000000  0.0000000  2
     32     31     33     35     1  0.0000000  0.0000000  2
     32     31     33     41     1  0.0000000  0.0000000  2
     31     33     35     36     1  0.0000000  0.6508444  3
     31     33     35     37     1  0.0000000  0.6508444  3
     56     55     57     58     1  0.0000000  8.3680000  1
     56     55     57     58     1  180.0000771  10.4600000  2
     55     57     59     60     1  0.0000000  0.0000000  2
     54     53     55     56     1  0.0000000  3.3472000  1
     54     53     55     56     1  0.0000000  0.0000000  2
     54     53     55     56     1  180.0000771  0.3347200  3
     54     53     55     57     1  0.0000000  0.0000000  2
     53     55     57     58     1  180.0000771  10.4600000  2
     52     50     53     54     1  0.0000000  0.6508444  3
     52     50     53     55     1  0.0000000  0.6508444  3
     51     50     53     54     1  0.0000000  0.6508444  3
     51     50     53     55     1  0.0000000  0.6508444  3
     49     47     50     51     1  0.0000000  0.6276000  3
     49     47     50     52     1  0.0000000  0.6276000  3
     49     47     50     53     1  0.0000000  0.6694400  3
     48     47     50     51     1  0.0000000  0.6276000  3
     48     47     50     52     1  0.0000000  0.6276000  3
     48     47     50     53     1  0.0000000  0.6694400  3
     47     50     53     54     1  0.0000000  0.6508444  3
     46     44     43     53     1  0.0000000  0.0000000  2
     46     44     47     48     1  0.0000000  0.6508444  3
     46     44     47     49     1  0.0000000  0.6508444  3
     46     44     47     50     1  0.0000000  0.6508444  3
     45     44     43     53     1  0.0000000  0.0000000  2
     45     44     47     48     1  0.0000000  0.6508444  3
     45     44     47     49     1  0.0000000  0.6508444  3
     45     44     47     50     1  0.0000000  0.6508444  3
     44     43     53     54     1  0.0000000  0.0000000  2
     44     47     50     51     1  0.0000000  0.6694400  3
     44     47     50     52     1  0.0000000  0.6694400  3
     43     44     47     48     1  0.0000000  0.6508444  3
     43     44     47     49     1  0.0000000  0.6508444  3
     43     53     50     51     1  0.0000000  0.6508444  3
     43     53     50     52     1  0.0000000  0.6508444  3
     71     70     72     73     1  0.0000000  8.3680000  1
     71     70     72     73     1  180.0000771  10.4600000  2
     70     72     74     75     1  0.0000000  0.0000000  2
     66     64     67     68     1  0.0000000  0.0000000  2
     66     64     67     69     1  0.0000000  0.0000000  2
     65     64     67     68     1  0.0000000  0.0000000  2
     65     64     67     69     1  0.0000000  0.0000000  2
     63     61     59     70     1  0.0000000  0.6508444  3
     63     61     64     65     1  0.0000000  0.6276000  3
     63     61     64     66     1  0.0000000  0.6276000  3
     63     61     64     67     1  0.0000000  0.6508444  3
     62     61     59     70     1  0.0000000  0.6508444  3
     62     61     64     65     1  0.0000000  0.6276000  3
     62     61     64     66     1  0.0000000  0.6276000  3
     62     61     64     67     1  0.0000000  0.6508444  3
     60     59     61     62     1  0.0000000  0.6508444  3
     60     59     61     63     1  0.0000000  0.6508444  3
     60     59     61     64     1  0.0000000  0.6508444  3
     60     59     70     71     1  0.0000000  3.3472000  1
     60     59     70     71     1  0.0000000  0.0000000  2
     60     59     70     71     1  180.0000771  0.3347200  3
     60     59     70     72     1  0.0000000  0.0000000  2
     59     61     64     65     1  0.0000000  0.6694400  3
     59     61     64     66     1  0.0000000  0.6694400  3
     59     70     72     73     1  180.0000771  10.4600000  2
     58     57     59     60     1  0.0000000  0.0000000  2
     58     57     59     61     1  0.0000000  0.0000000  2
     58     57     59     70     1  0.0000000  0.0000000  2
     57     59     61     62     1  0.0000000  0.6508444  3
     57     59     61     63     1  0.0000000  0.6508444  3
     85     84     86     87     1  0.0000000  8.3680000  1
     85     84     86     87     1  180.0000771  10.4600000  2
     84     86     88     89     1  0.0000000  0.0000000  2
     84     86     88     90     1  0.0000000  0.0000000  2
     81     78     76     82     1  0.0000000  1.0460000  1
     81     78     76     82     1  0.0000000  0.0000000  3
     80     78     76     82     1  0.0000000  1.0460000  1
     80     78     76     82     1  0.0000000  0.0000000  3
     79     78     76     82     1  0.0000000  1.0460000  1
     79     78     76     82     1  0.0000000  0.0000000  3
     78     76     82     83     1  0.0000000  2.6903120  1
     78     76     82     83     1  180.0000771  0.3305360  2
     78     76     82     83     1  0.0000000  0.9874240  3
     78     76     82     83     1  0.0000000  0.2008320  4
     77     76     74     84     1  0.0000000  0.6508444  3
     77     76     78     79     1  0.0000000  0.6508444  3
     77     76     78     80     1  0.0000000  0.6508444  3
     77     76     78     81     1  0.0000000  0.6508444  3
     77     76     82     83     1  0.0000000  0.6973333  3
     75     74     76     77     1  0.0000000  0.6508444  3
     75     74     76     78     1  0.0000000  0.6508444  3
     75     74     76     82     1  0.0000000  1.0460000  1
     75     74     76     82     1  0.0000000  0.0000000  3
     75     74     84     85     1  0.0000000  3.3472000  1
     75     74     84     85     1  0.0000000  0.0000000  2
     75     74     84     85     1  180.0000771  0.3347200  3
     75     74     84     86     1  0.0000000  0.0000000  2
     74     76     78     79     1  0.0000000  0.6694400  3
     74     76     78     80     1  0.0000000  0.6694400  3
     74     76     78     81     1  0.0000000  0.6694400  3
     74     76     82     83     1  180.0000771  0.0251040  1
     74     76     82     83     1  0.0000000  1.0501840  2
     74     76     82     83     1  0.0000000  0.9874240  3
     74     76     82     83     1  0.0000000  0.0543920  4
     74     84     86     87     1  180.0000771  10.4600000  2
     73     72     74     75     1  0.0000000  0.0000000  2
     73     72     74     76     1  0.0000000  0.0000000  2
     73     72     74     84     1  0.0000000  0.0000000  2
     72     74     76     77     1  0.0000000  0.6508444  3
     92     91     93     94     1  0.0000000  8.3680000  1
     92     91     93     94     1  180.0000771  10.4600000  2
     91     93     95     96     1  0.0000000  0.0000000  2
     90     88     91     92     1  0.0000000  3.3472000  1
     90     88     91     92     1  0.0000000  0.0000000  2
     90     88     91     92     1  180.0000771  0.3347200  3
     90     88     91     93     1  0.0000000  0.0000000  2
     89     88     91     92     1  0.0000000  3.3472000  1
     89     88     91     92     1  0.0000000  0.0000000  2
     89     88     91     92     1  180.0000771  0.3347200  3
     89     88     91     93     1  0.0000000  0.0000000  2
     88     91     93     94     1  180.0000771  10.4600000  2
     87     86     88     89     1  0.0000000  0.0000000  2
     87     86     88     90     1  0.0000000  0.0000000  2
     87     86     88     91     1  0.0000000  0.0000000  2
    106    105    107    108     1  0.0000000  8.3680000  1
    106    105    107    108     1  180.0000771  10.4600000  2
    105    107    109    110     1  0.0000000  0.0000000  2
    102     99     97    103     1  0.0000000  1.0460000  1
    102     99     97    103     1  0.0000000  0.0000000  3
    101     99     97    103     1  0.0000000  1.0460000  1
    101     99     97    103     1  0.0000000  0.0000000  3
    100     99     97    103     1  0.0000000  1.0460000  1
    100     99     97    103     1  0.0000000  0.0000000  3
     99     97    103    104     1  0.0000000  2.6903120  1
     99     97    103    104     1  180.0000771  0.3305360  2
     99     97    103    104     1  0.0000000  0.9874240  3
     99     97    103    104     1  0.0000000  0.2008320  4
     98     97     95    105     1  0.0000000  0.6508444  3
     98     97     99    100     1  0.0000000  0.6508444  3
     98     97     99    101     1  0.0000000  0.6508444  3
     98     97     99    102     1  0.0000000  0.6508444  3
     98     97    103    104     1  0.0000000  0.6973333  3
     96     95     97     98     1  0.0000000  0.6508444  3
     96     95     97     99     1  0.0000000  0.6508444  3
     96     95     97    103     1  0.0000000  1.0460000  1
     96     95     97    103     1  0.0000000  0.0000000  3
     96     95    105    106     1  0.0000000  3.3472000  1
     96     95    105    106     1  0.0000000  0.0000000  2
     96     95    105    106     1  180.0000771  0.3347200  3
     96     95    105    107     1  0.0000000  0.0000000  2
     95     97     99    100     1  0.0000000  0.6694400  3
     95     97     99    101     1  0.0000000  0.6694400  3
     95     97     99    102     1  0.0000000  0.6694400  3
     95     97    103    104     1  180.0000771  0.0251040  1
     95     97    103    104     1  0.0000000  1.0501840  2
     95     97    103    104     1  0.0000000  0.9874240  3
     95     97    103    104     1  0.0000000  0.0543920  4
     95    105    107    108     1  180.0000771  10.4600000  2
     94     93     95     96     1  0.0000000  0.0000000  2
     94     93     95     97     1  0.0000000  0.0000000  2
     94     93     95    105     1  0.0000000  0.0000000  2
     93     95     97     98     1  0.0000000  0.6508444  3
    130    129    131    132     1  0.0000000  8.3680000  1
    130    129    131    132     1  180.0000771  10.4600000  2
    129    131    133    134     1  0.0000000  0.0000000  2
    129    131    133    135     1  0.0000000  0.0000000  2
    125    124    126    127     1  180.0000771  15.1670000  2
    125    124    126    128     1  180.0000771  15.1670000  2
    123    122    124    125     1  180.0000771  15.1670000  2
    123    122    124    126     1  180.0000771  15.1670000  2
    122    124    126    127     1  180.0000771  15.1670000  2
    121    120    119    128     1  180.0000771  15.1670000  2
    121    120    122    123     1  180.0000771  15.1670000  2
    121    120    122    124     1  180.0000771  15.1670000  2
    120    122    124    125     1  180.0000771  15.1670000  2
    119    120    122    123     1  180.0000771  15.1670000  2
    119    128    126    127     1  180.0000771  14.6440000  2
    118    117    119    120     1  180.0000771  6.3806000  2
    118    117    119    128     1  180.0000771  6.3806000  2
    117    119    120    121     1  180.0000771  15.1670000  2
    116    115    114    128     1  180.0000771  27.3006000  2
    116    115    117    118     1  180.0000771  6.2760000  2
    116    115    117    119     1  180.0000771  6.2760000  2
    114    115    117    118     1  180.0000771  6.2760000  2
    114    128    126    127     1  180.0000771  14.6440000  2
    113    111    109    129     1  0.0000000  0.6508444  3
    113    111    114    115     1  0.0000000  0.0000000  2
    113    111    114    128     1  0.0000000  0.0000000  2
    112    111    109    129     1  0.0000000  0.6508444  3
    112    111    114    115     1  0.0000000  0.0000000  2
    112    111    114    128     1  0.0000000  0.0000000  2
    111    114    115    116     1  180.0000771  27.3006000  2
    110    109    111    112     1  0.0000000  0.6508444  3
    110    109    111    113     1  0.0000000  0.6508444  3
    110    109    111    114     1  0.0000000  0.6508444  3
    110    109    129    130     1  0.0000000  3.3472000  1
    110    109    129    130     1  0.0000000  0.0000000  2
    110    109    129    130     1  180.0000771  0.3347200  3
    110    109    129    131     1  0.0000000  0.0000000  2
    109    129    131    132     1  180.0000771  10.4600000  2
    108    107    109    110     1  0.0000000  0.0000000  2
    108    107    109    111     1  0.0000000  0.0000000  2
    108    107    109    129     1  0.0000000  0.0000000  2
    107    109    111    112     1  0.0000000  0.6508444  3
    107    109    111    113     1  0.0000000  0.6508444  3
    135    133    136    137     1  0.0000000  0.0000000  2
    135    133    136    138     1  0.0000000  0.0000000  2
    134    133    136    137     1  0.0000000  0.0000000  2
    134    133    136    138     1  0.0000000  0.0000000  2
    132    131    133    134     1  0.0000000  0.0000000  2
    132    131    133    135     1  0.0000000  0.0000000  2
    132    131    133    136     1  0.0000000  0.0000000  2
     17     25     27     28     4  180.0000771  4.6024000  2
     22     27     25     26     4  180.0000771  4.6024000  2
     18     22     20     21     4  180.0000771  4.6024000  2
     17     20     18     19     4  180.0000771  4.6024000  2
      8     12     10     11     4  180.0000771  4.6024000  2
     29     33     31     32     4  180.0000771  4.6024000  2
     55     59     57     58     4  180.0000771  4.6024000  2
     70     74     72     73     4  180.0000771  4.6024000  2
     84     88     86     87     4  180.0000771  4.6024000  2
     91     95     93     94     4  180.0000771  4.6024000  2
    124    128    126    127     4  180.0000771  4.6024000  2
    122    126    124    125     4  180.0000771  4.6024000  2
    120    124    122    123     4  180.0000771  4.6024000  2
    119    122    120    121     4  180.0000771  4.6024000  2
    115    119    117    118     4  180.0000771  4.1840000  2
    114    117    115    116     4  180.0000771  4.6024000  2
    105    109    107    108     4  180.0000771  4.6024000  2
    129    133    131    132     4  180.0000771  4.6024000  2

[ system ]
; Name
Generic title

[ molecules ]
; Compound       #mols
system1              1
