GROningen MAchine for Chemical Simulation
  138
    1GLY      N    1  -0.105   0.756  -0.052
    1GLY     H1    2  -0.113   0.857  -0.044
    1GLY     H2    3  -0.190   0.724  -0.095
    1GLY     H3    4  -0.026   0.724  -0.105
    1GLY     CA    5  -0.095   0.689   0.081
    1GLY    HA2    6  -0.010   0.728   0.137
    1GLY    HA3    7  -0.188   0.702   0.137
    1GLY      C    8  -0.090   0.537   0.062
    1GLY      O    9  -0.074   0.491  -0.047
    2TYR      N   10  -0.102   0.459   0.169
    2TYR      H   11  -0.109   0.501   0.261
    2TYR     CA   12  -0.088   0.314   0.172
    2TYR     HA   13  -0.005   0.282   0.110
    2TYR     CB   14  -0.046   0.273   0.309
    2TYR    HB2   15  -0.110   0.310   0.389
    2TYR    HB3   16  -0.050   0.165   0.299
    2TYR     CG   17   0.094   0.316   0.356
    2TYR    CD1   18   0.203   0.224   0.343
    2TYR    HD1   19   0.187   0.126   0.299
    2TYR    CE1   20   0.329   0.247   0.396
    2TYR    HE1   21   0.405   0.170   0.390
    2TYR     CZ   22   0.346   0.366   0.476
    2TYR     OH   23   0.465   0.384   0.535
    2TYR     HH   24   0.463   0.445   0.609
    2TYR    CE2   25   0.241   0.463   0.484
    2TYR    HE2   26   0.263   0.553   0.540
    2TYR    CD2   27   0.113   0.439   0.425
    2TYR    HD2   28   0.037   0.514   0.438
    2TYR      C   29  -0.216   0.238   0.138
    2TYR      O   30  -0.327   0.262   0.184
    3ASP      N   31  -0.212   0.151   0.032
    3ASP      H   32  -0.125   0.149  -0.020
    3ASP     CA   33  -0.310   0.048  -0.007
    3ASP     HA   34  -0.408   0.097  -0.010
    3ASP     CB   35  -0.277   0.008  -0.150
    3ASP    HB2   36  -0.278   0.099  -0.210
    3ASP    HB3   37  -0.177  -0.033  -0.161
    3ASP     CG   38  -0.386  -0.090  -0.203
    3ASP    OD1   39  -0.490  -0.114  -0.136
    3ASP    OD2   40  -0.372  -0.151  -0.309
    3ASP      C   41  -0.316  -0.075   0.088
    3ASP      O   42  -0.210  -0.137   0.099
    4PRO      N   43  -0.432  -0.111   0.153
    4PRO     CD   44  -0.554  -0.025   0.166
    4PRO    HD2   45  -0.612  -0.042   0.075
    4PRO    HD3   46  -0.522   0.079   0.173
    4PRO     CG   47  -0.628  -0.068   0.295
    4PRO    HG2   48  -0.737  -0.068   0.292
    4PRO    HG3   49  -0.597  -0.015   0.385
    4PRO     CB   50  -0.587  -0.216   0.309
    4PRO    HB2   51  -0.659  -0.278   0.256
    4PRO    HB3   52  -0.577  -0.250   0.413
    4PRO     CA   53  -0.451  -0.224   0.246
    4PRO     HA   54  -0.378  -0.203   0.324
    4PRO      C   55  -0.423  -0.357   0.190
    4PRO      O   56  -0.376  -0.444   0.258
    5GLU      N   57  -0.444  -0.378   0.061
    5GLU      H   58  -0.475  -0.294   0.014
    5GLU     CA   59  -0.436  -0.516  -0.002
    5GLU     HA   60  -0.476  -0.593   0.063
    5GLU     CB   61  -0.507  -0.508  -0.132
    5GLU    HB2   62  -0.599  -0.450  -0.124
    5GLU    HB3   63  -0.437  -0.469  -0.206
    5GLU     CG   64  -0.538  -0.647  -0.200
    5GLU    HG2   65  -0.585  -0.635  -0.298
    5GLU    HG3   66  -0.447  -0.704  -0.216
    5GLU     CD   67  -0.629  -0.734  -0.107
    5GLU    OE1   68  -0.717  -0.684  -0.032
    5GLU    OE2   69  -0.620  -0.857  -0.130
    5GLU      C   70  -0.289  -0.558  -0.023
    5GLU      O   71  -0.251  -0.676  -0.025
    6THR      N   72  -0.208  -0.453  -0.039
    6THR      H   73  -0.251  -0.362  -0.026
    6THR     CA   74  -0.062  -0.466  -0.077
    6THR     HA   75  -0.037  -0.570  -0.096
    6THR     CB   76  -0.029  -0.396  -0.207
    6THR     HB   77   0.071  -0.427  -0.237
    6THR    CG2   78  -0.112  -0.438  -0.328
    6THR   HG21   79  -0.071  -0.397  -0.420
    6THR   HG22   80  -0.220  -0.424  -0.315
    6THR   HG23   81  -0.114  -0.547  -0.338
    6THR    OG1   82  -0.037  -0.257  -0.185
    6THR    HG1   83  -0.030  -0.215  -0.271
    6THR      C   84   0.035  -0.425   0.033
    6THR      O   85   0.149  -0.470   0.046
    7GLY      N   86  -0.012  -0.338   0.119
    7GLY      H   87  -0.101  -0.291   0.110
    7GLY     CA   88   0.076  -0.283   0.224
    7GLY    HA2   89   0.013  -0.237   0.299
    7GLY    HA3   90   0.125  -0.366   0.274
    7GLY      C   91   0.189  -0.186   0.187
    7GLY      O   92   0.284  -0.174   0.261
    8THR      N   93   0.186  -0.119   0.073
    8THR      H   94   0.109  -0.133   0.009
    8THR     CA   95   0.279  -0.017   0.021
    8THR     HA   96   0.325   0.033   0.106
    8THR     CB   97   0.390  -0.093  -0.065
    8THR     HB   98   0.422  -0.183  -0.012
    8THR    CG2   99   0.355  -0.139  -0.205
    8THR   HG21  100   0.258  -0.190  -0.206
    8THR   HG22  101   0.433  -0.210  -0.232
    8THR   HG23  102   0.355  -0.049  -0.266
    8THR    OG1  103   0.507  -0.020  -0.081
    8THR    HG1  104   0.568  -0.041  -0.010
    8THR      C  105   0.207   0.096  -0.056
    8THR      O  106   0.088   0.095  -0.066
    9TRP      N  107   0.280   0.193  -0.110
    9TRP      H  108   0.380   0.197  -0.098
    9TRP     CA  109   0.223   0.316  -0.183
    9TRP     HA  110   0.171   0.377  -0.109
    9TRP     CB  111   0.336   0.388  -0.264
    9TRP    HB2  112   0.373   0.325  -0.345
    9TRP    HB3  113   0.285   0.473  -0.309
    9TRP     CG  114   0.449   0.429  -0.177
    9TRP    CD1  115   0.570   0.369  -0.169
    9TRP    HD1  116   0.604   0.293  -0.239
    9TRP    NE1  117   0.644   0.420  -0.064
    9TRP    HE1  118   0.737   0.391  -0.037
    9TRP    CE2  119   0.568   0.508   0.013
    9TRP    CZ2  120   0.594   0.577   0.130
    9TRP    HZ2  121   0.689   0.588   0.180
    9TRP    CH2  122   0.500   0.666   0.175
    9TRP    HH2  123   0.529   0.722   0.263
    9TRP    CZ3  124   0.377   0.683   0.109
    9TRP    HZ3  125   0.295   0.742   0.146
    9TRP    CE3  126   0.356   0.611  -0.013
    9TRP    HE3  127   0.259   0.619  -0.059
    9TRP    CD2  128   0.448   0.525  -0.070
    9TRP      C  129   0.118   0.271  -0.295
    9TRP      O  130   0.149   0.180  -0.372
   10GLY      N  131  -0.002   0.334  -0.300
   10GLY      H  132  -0.019   0.400  -0.226
   10GLY     CA  133  -0.086   0.326  -0.420
   10GLY    HA2  134  -0.064   0.233  -0.473
   10GLY    HA3  135  -0.192   0.321  -0.396
   10GLY      C  136  -0.075   0.446  -0.514
   10GLY      O  137  -0.148   0.546  -0.491
   10GLY    OXT  138   0.011   0.445  -0.609
   8.00000   8.00000   8.00000
