integrator = md
dt = 0.004
nstxout = 0
nstvout = 0
nstfout = 0
nstlog = 0
nstenergy = 0
nstxout-compressed = 0
cutoff-scheme = Verlet
pbc = xyz
nstlist = 10
coulombtype = Cut-off
rcoulomb = 1.0
vdwtype = Cut-off
rvdw = 1.0
rlist = 1.0
verlet-buffer-tolerance = -1
constraints = none
constraint-algorithm = lincs
tcoupl = v-rescale
tc-grps = System
tau-t = 1.0
pcoupl = no
comm-mode = Linear
