GROningen MAchine for Chemical Simulation
  138
    1GLY      N    1  -0.648   0.355   1.180
    1GLY     H1    2  -0.718   0.331   1.248
    1GLY     H2    3  -0.658   0.447   1.138
    1GLY     H3    4  -0.553   0.361   1.213
    1GLY     CA    5  -0.666   0.253   1.074
    1GLY    HA2    6  -0.639   0.154   1.109
    1GLY    HA3    7  -0.772   0.241   1.052
    1GLY      C    8  -0.589   0.284   0.943
    1GLY      O    9  -0.544   0.398   0.926
    2TYR      N   10  -0.575   0.182   0.858
    2TYR      H   11  -0.613   0.088   0.866
    2TYR     CA   12  -0.480   0.191   0.749
    2TYR     HA   13  -0.469   0.295   0.719
    2TYR     CB   14  -0.342   0.154   0.802
    2TYR    HB2   15  -0.345   0.054   0.844
    2TYR    HB3   16  -0.269   0.144   0.721
    2TYR     CG   17  -0.279   0.251   0.898
    2TYR    CD1   18  -0.220   0.372   0.851
    2TYR    HD1   19  -0.219   0.396   0.746
    2TYR    CE1   20  -0.168   0.471   0.947
    2TYR    HE1   21  -0.131   0.566   0.912
    2TYR     CZ   22  -0.172   0.439   1.084
    2TYR     OH   23  -0.142   0.535   1.173
    2TYR     HH   24  -0.130   0.494   1.258
    2TYR    CE2   25  -0.235   0.322   1.130
    2TYR    HE2   26  -0.242   0.304   1.236
    2TYR    CD2   27  -0.288   0.230   1.036
    2TYR    HD2   28  -0.333   0.143   1.081
    2TYR      C   29  -0.516   0.102   0.628
    2TYR      O   30  -0.594   0.002   0.633
    3ASP      N   31  -0.466   0.128   0.507
    3ASP      H   32  -0.401   0.205   0.511
    3ASP     CA   33  -0.509   0.068   0.374
    3ASP     HA   34  -0.611   0.031   0.373
    3ASP     CB   35  -0.507   0.171   0.265
    3ASP    HB2   36  -0.576   0.251   0.291
    3ASP    HB3   37  -0.409   0.215   0.246
    3ASP     CG   38  -0.560   0.126   0.124
    3ASP    OD1   39  -0.501   0.030   0.066
    3ASP    OD2   40  -0.667   0.172   0.077
    3ASP      C   41  -0.417  -0.046   0.330
    3ASP      O   42  -0.295  -0.032   0.337
    4PRO      N   43  -0.461  -0.172   0.284
    4PRO     CD   44  -0.593  -0.219   0.306
    4PRO    HD2   45  -0.663  -0.196   0.226
    4PRO    HD3   46  -0.631  -0.186   0.403
    4PRO     CG   47  -0.580  -0.373   0.316
    4PRO    HG2   48  -0.612  -0.422   0.224
    4PRO    HG3   49  -0.642  -0.405   0.399
    4PRO     CB   50  -0.434  -0.407   0.335
    4PRO    HB2   51  -0.396  -0.496   0.286
    4PRO    HB3   52  -0.412  -0.410   0.442
    4PRO     CA   53  -0.373  -0.282   0.262
    4PRO     HA   54  -0.279  -0.265   0.313
    4PRO      C   55  -0.347  -0.311   0.112
    4PRO      O   56  -0.276  -0.405   0.073
    5GLU      N   57  -0.386  -0.219   0.014
    5GLU      H   58  -0.446  -0.142   0.041
    5GLU     CA   59  -0.374  -0.242  -0.129
    5GLU     HA   60  -0.348  -0.346  -0.146
    5GLU     CB   61  -0.501  -0.197  -0.201
    5GLU    HB2   62  -0.578  -0.182  -0.125
    5GLU    HB3   63  -0.474  -0.100  -0.241
    5GLU     CG   64  -0.561  -0.307  -0.290
    5GLU    HG2   65  -0.630  -0.263  -0.363
    5GLU    HG3   66  -0.470  -0.347  -0.334
    5GLU     CD   67  -0.630  -0.419  -0.216
    5GLU    OE1   68  -0.728  -0.386  -0.146
    5GLU    OE2   69  -0.590  -0.538  -0.245
    5GLU      C   70  -0.252  -0.168  -0.190
    5GLU      O   71  -0.231  -0.168  -0.310
    6THR      N   72  -0.188  -0.086  -0.106
    6THR      H   73  -0.216  -0.103  -0.010
    6THR     CA   74  -0.099   0.025  -0.148
    6THR     HA   75  -0.057   0.007  -0.247
    6THR     CB   76  -0.181   0.159  -0.161
    6THR     HB   77  -0.108   0.232  -0.195
    6THR    CG2   78  -0.287   0.163  -0.270
    6THR   HG21   79  -0.337   0.260  -0.276
    6THR   HG22   80  -0.372   0.101  -0.242
    6THR   HG23   81  -0.247   0.141  -0.370
    6THR    OG1   82  -0.244   0.188  -0.044
    6THR    HG1   83  -0.304   0.115  -0.027
    6THR      C   84   0.010   0.055  -0.043
    6THR      O   85  -0.009   0.036   0.076
    7GLY      N   86   0.137   0.085  -0.089
    7GLY      H   87   0.158   0.099  -0.187
    7GLY     CA   88   0.261   0.083  -0.008
    7GLY    HA2   89   0.254   0.142   0.083
    7GLY    HA3   90   0.277  -0.020   0.025
    7GLY      C   91   0.391   0.118  -0.086
    7GLY      O   92   0.472   0.182  -0.030
    8THR      N   93   0.396   0.085  -0.217
    8THR      H   94   0.316   0.044  -0.264
    8THR     CA   95   0.502   0.117  -0.303
    8THR     HA   96   0.551   0.211  -0.278
    8THR     CB   97   0.611   0.007  -0.285
    8THR     HB   98   0.641   0.006  -0.180
    8THR    CG2   99   0.564  -0.136  -0.321
    8THR   HG21  100   0.503  -0.181  -0.243
    8THR   HG22  101   0.649  -0.200  -0.343
    8THR   HG23  102   0.497  -0.133  -0.407
    8THR    OG1  103   0.726   0.027  -0.369
    8THR    HG1  104   0.800   0.050  -0.312
    8THR      C  105   0.455   0.139  -0.449
    8THR      O  106   0.351   0.086  -0.490
    9TRP      N  107   0.542   0.191  -0.543
    9TRP      H  108   0.636   0.214  -0.515
    9TRP     CA  109   0.503   0.253  -0.672
    9TRP     HA  110   0.408   0.205  -0.693
    9TRP     CB  111   0.491   0.404  -0.649
    9TRP    HB2  112   0.587   0.454  -0.662
    9TRP    HB3  113   0.405   0.438  -0.706
    9TRP     CG  114   0.468   0.452  -0.508
    9TRP    CD1  115   0.568   0.512  -0.425
    9TRP    HD1  116   0.672   0.522  -0.451
    9TRP    NE1  117   0.518   0.541  -0.297
    9TRP    HE1  118   0.563   0.570  -0.212
    9TRP    CE2  119   0.379   0.507  -0.296
    9TRP    CZ2  120   0.285   0.510  -0.194
    9TRP    HZ2  121   0.302   0.562  -0.101
    9TRP    CH2  122   0.157   0.450  -0.212
    9TRP    HH2  123   0.091   0.429  -0.130
    9TRP    CZ3  124   0.127   0.401  -0.342
    9TRP    HZ3  125   0.028   0.363  -0.362
    9TRP    CE3  126   0.217   0.402  -0.443
    9TRP    HE3  127   0.180   0.379  -0.542
    9TRP    CD2  128   0.346   0.456  -0.432
    9TRP      C  129   0.609   0.232  -0.779
    9TRP      O  130   0.732   0.192  -0.756
   10GLY      N  131   0.573   0.273  -0.899
   10GLY      H  132   0.478   0.299  -0.922
   10GLY     CA  133   0.661   0.291  -1.015
   10GLY    HA2  134   0.763   0.299  -0.978
   10GLY    HA3  135   0.673   0.200  -1.074
   10GLY      C  136   0.642   0.404  -1.105
   10GLY      O  137   0.533   0.407  -1.164
   10GLY    OXT  138   0.733   0.495  -1.115
   8.00000   8.00000   8.00000
