
 1168  0.0000000e+00
   9.7757829  12.2413077  13.8271803  10.2852997  12.5758141  12.9235289
   9.6683641  13.3619098  12.4881484  10.3930462  11.8821458  12.0896785
  11.6173441  13.0936528  13.3529698  12.0647156  12.8392842  14.4621819
  12.2260570  13.9628031  12.5885791  11.7548478  14.2687821  11.7492706
  13.5126798  14.6093372  12.9349077  13.8148553  14.2586545  13.9217269
  14.6419870  14.2313214  11.9169235  14.5475693  14.6857332  10.9306727
  15.6143872  14.5639068  12.2801471  14.8102230  13.1543869  11.9197426
  13.3704591  16.1677752  12.8963901  12.3409146  16.6853388  12.4600349
  14.3731396  16.9631778  13.3887506  15.2555376  16.4943843  13.5360822
  14.4123748  18.4294421  13.5104458  15.4315358  18.8036463  13.4135863
  13.7439962  18.8399474  12.7535724  14.1035284  18.7552652  14.5036979
  24.3353363  24.5867507  20.5359516  23.4693401  24.7960672  20.8859075
  24.1824021  23.8519472  19.9418920  17.2222758  20.4645839  16.5581545
  16.2690729  20.4064172  16.6233676  17.3761852  21.0878210  15.8481410
  12.5329493  22.5006956  20.4834411  12.5864401  23.3023731  21.0037138
  13.0950462  22.6681451  19.7269759  23.3491324  24.0867449  23.8529611
  23.3679537  24.7439636  24.5486200  24.2159430  24.1392683  23.4503292
  24.1611325  19.4023202  20.5185263  24.1252272  18.7010483  19.8680184
  24.7559731  20.0497880  20.1401324  18.6289562  18.8565292  18.0363801
  18.2365205  18.8240304  18.9088306  18.0650351  19.4514393  17.5421061
  19.5509939  20.7213622  22.3105301  19.8715724  20.1529135  23.0107638
  20.3288174  20.9221973  21.7900613  23.4708733  25.4345265  17.1146773
  23.1964285  24.6966131  16.5702549  23.9032531  26.0334947  16.5059765
  14.4634511  27.2325770  16.7466409  14.1313274  28.0543882  17.1079610
  15.4035787  27.3793454  16.6424729  22.3265295  16.6523484  20.0068157
  22.4167150  15.7974348  19.5858393  21.4466925  16.6421345  20.3836636
  25.0008888  23.0217507  18.1195486  24.2431436  23.1875395  17.5586849
  25.2719568  23.8896764  18.4186456  23.9993620  20.3019657  15.1586666
  23.0964667  20.4353142  15.4471628  24.4089287  21.1624877  15.2480467
  18.9993649  23.6612865  21.2493959  18.9421271  23.0515310  20.5137643
  18.7122179  23.1508277  22.0065024  15.7946271  23.2874985  17.3454051
  16.0939155  23.7851895  16.5845096  15.4485808  22.4739605  16.9784724
  19.6726015  16.7330135  21.8207017  19.1561729  17.3790789  21.3389000
  20.1798066  17.2501987  22.4463968  22.5337842  16.6171437  16.3760793
  21.5863102  16.6932759  16.4889014  22.6666365  15.7221810  16.0636312
  21.9563929  18.4773979  22.2421840  22.5139360  19.2544429  22.2024541
  22.3384277  17.8755770  21.6033625  18.0915772  22.1533345  18.7388353
  17.8982813  21.4015964  18.1786940  17.3856823  22.7741679  18.5585295
  26.1875437  21.2854562  20.0552776  25.7013690  21.8356253  19.4411279
  26.1876974  21.7822304  20.8734751  13.4433230  17.1459363  22.0084069
  13.1130836  18.0211283  21.8053979  12.8608649  16.8237603  22.6962855
  21.7550284  21.0437725  20.5696891  21.6216967  20.2701910  20.0219426
  22.7045580  21.1632589  20.5883579  17.8859294  18.5963341  20.5628574
  18.0478664  19.3160748  21.1727603  16.9422511  18.4450803  20.6160120
  22.6408934  22.8322679  15.8372507  21.9650919  22.4570500  16.4018174
  22.1678658  23.1208613  15.0567440  21.2370735  23.5289299  13.7937891
  20.8198429  22.8402075  13.2762836  21.3562603  24.2521635  13.1781922
  15.3165962  17.4350815  20.0369882  14.6605574  17.3364532  20.7270008
  15.3020989  16.5988582  19.5714216  17.2881545  27.1360703  17.1366005
  17.8434535  27.3886282  17.8742247  17.7375595  26.3878277  16.7436629
  25.0659545  17.9631680  15.8821624  24.2841399  17.4927183  16.1714284
  24.7290711  18.7669161  15.4862704  21.5836309  24.6038754  21.5605721
  20.6566446  24.3673211  21.5917228  21.9477893  24.2530387  22.3733046
  14.3876460  22.6351251  14.6071735  15.1264684  23.1819742  14.8742491
  14.0105746  23.0924139  13.8555513  21.1535164  26.2900040  18.4762354
  22.0892126  26.2723777  18.2752531  21.1146064  26.3418779  19.4312364
  17.9239960  14.2609808  18.5140741  18.0375616  14.2969112  19.4638339
  17.0211803  14.5444825  18.3699132  15.9434504  25.0415086  15.2486374
  15.6633751  25.7897830  15.7757758  16.4428669  25.4285813  14.5296174
  20.6581129  21.8322357  17.8421383  19.8466406  22.2079366  18.1835961
  20.9193631  21.1881455  18.5002629  19.0774193  19.1478376  14.2488311
  19.4203912  18.2776991  14.0452110  18.8913808  19.1183714  15.1873157
  17.8663695  25.2254240  13.1317908  18.1520000  26.0614264  12.7633521
  18.5276874  24.5972715  12.8414204  17.8641877  22.6301299  14.7431955
  18.5583561  22.1559440  14.2854729  18.0763297  23.5538126  14.6088906
  20.0371778  27.2670135  14.2109848  19.6162417  26.7078189  14.8639365
  20.7523338  26.7336509  13.8641304  23.0631065  28.1395648  12.2252859
  24.0173165  28.2022739  12.2675061  22.7917210  28.9287621  11.7565114
  19.3936873  25.4809249  16.2400922  19.9301841  25.5169212  17.0319933
  19.7530114  24.7477797  15.7404762  21.6530159  25.8341239  12.2462850
  21.2144886  25.9663512  11.4057842  22.2122321  26.6042369  12.3484374
  19.6971444  21.4142270  13.0664487  19.6046240  20.5808990  13.5282237
  19.5749095  21.1915187  12.1435773  21.1908981  16.7927278  13.4202558
  20.6115452  16.1723769  12.9778230  21.8923180  16.2501886  13.7806627
  13.8788168  24.8879957  18.7837880  13.5460827  25.6455665  18.3025330
  14.5952837  24.5562673  18.2426196  14.5015198  20.7747581  16.4176034
  13.7352066  20.7014376  16.9864796  14.2173561  21.3480626  15.7057013
  21.3264787  19.2335480  18.6572843  20.4854720  19.1666849  18.2051018
  21.7396154  18.3807585  18.5220073  19.6918877  16.3556136  17.5135130
  19.1128918  15.7393764  17.9621190  19.3505123  17.2187190  17.7474865
  23.4127065  26.2630668   4.8076478  23.7046666  25.8802085   5.6349390
  23.6855908  25.6316464   4.1420096  16.8547704  24.2474308   4.4082493
  16.1816196  23.7162729   4.8336562  16.7776401  24.0323423   3.4787227
  14.4405929  21.2343430   2.8003372  14.9246390  21.1809503   3.6244006
  14.7201883  20.4626173   2.3078967  20.3684860  26.5070275   4.6055844
  21.3227238  26.5378202   4.5369263  20.0789893  27.3695143   4.3080278
  15.4314232  18.1489214   7.8770859  15.1231456  17.2442499   7.9296816
  14.7223928  18.6184034   7.4376608  25.2423676  20.9315192   5.1031532
  24.9661210  20.4693956   5.8945831  26.1923710  20.8170458   5.0782283
  16.0740451  19.2818357   4.4210767  16.7076103  19.5259022   5.0958051
  15.2610700  19.1250124   4.9013994  20.3580667  19.7264195   3.9282003
  20.6243088  20.6371082   4.0546636  21.1727522  19.2278142   3.9907475
  18.9088757  15.9694153   7.7989662  18.6064087  16.7134670   7.2782622
  18.2637207  15.2822681   7.6321264  19.3545227  23.9994877   5.3176400
  18.4290011  24.0215525   5.0744226  19.7468507  24.7258808   4.8332191
  17.5350336  17.5588787   6.2739964  17.9535259  18.4170372   6.2057322
  16.7212701  17.7263803   6.7493530  18.4281238  19.9662752   5.9443359
  19.0584839  19.9455069   5.2243035  18.6624699  20.7474802   6.4453673
  18.7232715  27.8388633  11.5648869  19.0413392  28.0184873  12.4496467
  18.8129333  28.6730878  11.1041676  17.4305398  23.7905532   8.6219677
  17.3063683  24.7132069   8.8445062  16.5732681  23.3911162   8.7695046
  13.7051517  25.6005617   5.1511464  14.4897260  26.0915936   4.9070916
  14.0224321  24.7151964   5.3291726  15.3290352  27.6138268   7.7102839
  15.4679535  27.2394428   6.8403585  16.0352631  27.2490516   8.2435879
  18.9626738  16.6898106   3.2101528  18.7240443  17.5932444   3.0025590
  19.9037886  16.7240037   3.3815169  23.6414085  18.9782603   7.7412389
  23.1253931  19.0106494   8.5467889  23.1560392  18.3833439   7.1696420
  21.6079232  16.5845666   3.7264331  22.3727518  16.6740657   3.1578744
  21.8248908  15.8548469   4.3066624  21.1426078  23.1644482   9.5192362
  22.0030307  22.7612970   9.4035927  21.1025930  23.8414772   8.8437642
  16.7162493  19.0867703   9.7950104  16.1762227  19.8346253  10.0505803
  16.2409034  18.6855984   9.0674533  23.2595262  18.5429876  12.5224448
  22.4638139  18.1277488  12.8550865  23.6811913  18.9096542  13.2996101
  13.4288136  16.7194765   4.1801014  13.6985598  17.4275310   4.7650181
  14.1759414  16.5944393   3.5949539  23.8934722  23.4600203   4.3220962
  23.1701959  22.9271986   3.9916355  24.4669280  22.8359471   4.7669703
  23.6430172  19.3115522   3.9010296  23.6533673  19.4998740   2.9625949
  24.3276551  19.8725296   4.2654567  17.7779032  19.0521102   2.5048255
  18.5028383  19.4900103   2.9508573  17.0048289  19.2843995   3.0192471
  16.5529086  26.2094993   9.6594481  15.7543218  26.0694982  10.1682610
  17.1089836  26.7420224  10.2281586  21.5281811  21.9676778   4.9996696
  22.0631557  22.0498620   5.7891503  20.7852032  22.5516533   5.1519470
  19.2278092  21.9965953   7.6822894  18.6144187  22.7233830   7.7907491
  20.0891164  22.3852976   7.8349073  23.4939500  25.0842044   9.7171603
  22.8185012  25.7534554   9.6071424  23.4349407  24.8336424  10.6390977
  16.6506261  26.7417150   5.4240047  17.3913499  27.2138221   5.0436432
  16.7702965  25.8366238   5.1363926  14.7470138  23.5333867   8.7735752
  14.5761155  24.0894688   9.5337057  14.2884180  22.7157640   8.9670044
  18.7905494  23.6120782  10.9886835  18.3935401  23.8089730  10.1402449
  19.7178666  23.4769350  10.7936171  22.8014381  21.9439643   7.3628170
  23.5326312  22.5516332   7.4738443  23.1210583  21.1164120   7.7223055
  14.5759243  24.6910435  11.1292068  15.3209095  24.3338473  11.6125696
  13.8472788  24.6514522  11.7486744  20.4882731  26.3389116   9.9978086
  19.6811833  26.7992796  10.2278072  20.3050046  25.9459612   9.1444421
  16.4760037  22.8491894  11.9435113  16.6070267  22.6965360  12.8793327
  17.3193227  23.1801265  11.6344393  19.2606445  20.4886213  10.2904838
  18.3891881  20.0956720  10.2416340  19.4412912  20.7824328   9.3975821
  17.7499612  16.5134839  10.4883928  18.1686709  16.3229012   9.6489928
  17.6083597  17.4600706  10.4759645  21.3989825  17.1647318   6.7126360
  21.0023760  17.4488238   5.8890908  20.6718954  16.7953034   7.2137336
  20.6215916  24.9081038   7.5056935  21.1916126  25.5941918   7.1584311
  20.0212866  24.7090319   6.7871977  24.7274026  23.8459397   7.4224941
  25.5069560  23.6148054   7.9275737  24.2304667  24.4248923   8.0005082
  22.2485630  19.7333060  10.0589580  22.5756669  19.6701982  10.9563165
  21.3228763  19.9564701  10.1565984  14.6517320  23.0988831   6.1075517
  14.7421438  23.5441503   6.9500448  14.1021920  22.3382449   6.2964095
  15.0760064  21.0028930  10.4980501  14.1673305  21.0707756  10.7911918
  15.5552837  21.6110388  11.0607968  15.7674775  16.3383281   3.2218903
  15.9986215  16.2696520   4.1482206  16.5263934  16.7573851   2.8160951
  14.5392424  15.5864696   7.8689618  13.6787335  15.3828557   8.2354285
  14.8617861  14.7491972   7.5355366  23.6213472  17.1126155  10.3342768
  23.3153880  17.6625503  11.0555205  24.0785282  17.7169968   9.7495199
  22.8156444  14.5595835   4.8691888  23.0835075  14.7862272   5.7597582
  23.0914390  13.6494517   4.7604265  19.5254150  14.8990454  11.9503618
  19.0644199  15.6897488  11.6701769  19.4024812  14.2818549  11.2291164
  24.0502907   7.1029697  20.1269745  23.8215652   6.1869791  19.9692476
  24.4382697   7.3982179  19.3032436  17.0607679  11.7494702  20.0080616
  17.5974310  11.7991141  19.2170117  17.6809814  11.8738941  20.7264528
  16.0812773   1.5509113  16.2176951  15.1711504   1.3089189  16.3889858
  16.5547731   0.7190286  16.2198620  12.5939356   4.9793299  20.6610354
  12.7394766   5.7963435  21.1380453  13.4368466   4.7889235  20.2493580
  24.6698175  12.5004920  19.5403988  24.0124232  13.0700355  19.1407931
  25.3044223  13.1028242  19.9286054  23.0632129   8.7912056  22.6440258
  23.1684856   8.3694699  21.7912137  23.9192703   9.1783657  22.8270685
  21.9918731   5.9003037  22.4276282  22.8899121   5.8663293  22.0980776
  22.0046372   6.5945166  23.0865192  25.6738799   7.5073067  17.5371877
  25.2665958   7.8322822  16.7342291  25.7483378   8.2797479  18.0975648
  15.3904040   8.3201428  16.0184413  15.7705278   8.7629019  15.2596910
  15.0402620   9.0285797  16.5585798  23.7541448   5.3214062  17.7610717
  22.9120536   5.6386780  17.4348006  24.3825032   5.9925023  17.4945615
  19.9503131   5.9743198  20.1791721  19.5606301   5.1123094  20.0331682
  20.4483973   5.8776385  20.9908350  20.0996114  10.0210152  22.9158306
  19.6652813   9.5323279  22.2167069  21.0321316   9.8499746  22.7839862
  24.5471812  10.0533332  18.6344491  24.5044970  10.4318050  17.7562868
  24.6204430  10.8088640  19.2175767  16.9138693   3.8665317  17.6251492
  16.7650166   4.5784666  17.0028763  16.6282012   3.0794194  17.1613823
  14.8267634  10.2578313  20.1345285  14.9370484  10.2850463  19.1840926
  15.6799255  10.5176079  20.4821811  20.2651892  12.9819761  18.0017392
  19.9555568  12.0901836  18.1600605  19.5182218  13.5378238  18.2237863
  18.3461960   3.6240031  19.9285106  17.8892388   2.9404060  20.4185279
  17.8575573   3.6984261  19.1088001  12.9665287   1.8912817  14.0768843
  13.3065139   2.7644016  13.8811712  12.1555236   1.8313318  13.5719997
  24.5008388   3.2061851  15.1662875  24.9232129   3.1027421  16.0190076
  23.5660059   3.1116803  15.3490118  21.6964510   4.3092371  14.0201086
  21.5479369   3.5482270  13.4588252  22.5772101   4.6067598  13.7921272
  18.4398265   8.1285133  17.1886283  17.6069098   7.6876901  17.3564275
  19.1048795   7.4811119  17.4227387  19.2219914   8.5874379  20.8752605
  19.5151258   7.8270650  20.3731279  18.4422815   8.2821125  21.3390069
  24.0539390   8.8682088  15.8561180  23.9952260   9.8104377  15.6980377
  23.1436294   8.5759137  15.9022895  21.9446284   9.0297038  18.2499931
  22.8258789   9.3039843  18.5037639  21.4487665   9.8459718  18.1862798
  13.6055460   4.4981086  13.0727721  14.5311020   4.4944548  12.8287135
  13.3028352   5.3786779  12.8509710  20.8851154   6.6610237  17.5946365
  21.2318692   7.4962384  17.9083404  20.7753826   6.1346494  18.3865459
  20.6552245  10.5695719  14.9756683  20.5917771  11.4756837  14.6737283
  19.7709352  10.3531691  15.2713610  16.5095628   5.7895529  15.5939387
  16.0483772   6.5893095  15.8467806  17.0290512   6.0436058  14.8311670
  23.3160969  11.3755639  15.1051785  23.5175810  11.5582304  14.1874264
  22.3763920  11.1935377  15.1124518  22.6232657  14.2668352  18.6764155
  22.6354397  14.6753120  17.8108345  21.8725478  13.6735434  18.6507397
  18.0846291   6.5898797  13.5065408  18.9365233   6.4985253  13.9333456
  18.0948021   5.9346465  12.8088319  17.0195352   3.3361203  14.1873116
  16.9998887   2.5331542  14.7079758  16.7204882   4.0185788  14.7881886
  18.3642851  14.2913017  21.1142749  18.3165365  13.8052366  21.9374958
  18.7188147  15.1455799  21.3607488  14.6824013  10.6187464  17.3242334
  13.8743319  11.1109937  17.1794983  15.3771147  11.2056471  17.0256490
  20.7225001  12.9433260  13.3157792  20.4891427  13.7064755  12.7872159
  20.6695628  12.2057573  12.7079784  22.3454915   7.4144425  13.0011776
  21.5525623   7.6329955  13.4907995  22.0337304   7.2087865  12.1198476
  24.9686248   7.0633210  12.7714836  24.0513319   7.3347673  12.8049866
  25.3118147   7.2712054  13.6405271  20.2297111   6.4057032  14.9631534
  20.6029873   6.5080833  15.8386047  20.5879382   5.5768613  14.6454642
  24.3347085   4.4701718  12.7261871  24.6307916   4.1371738  13.5733465
  24.9092730   5.2145693  12.5473581  21.5293066   2.0824758  12.2598238
  21.9135082   1.2114109  12.3591554  20.6990854   1.9280898  11.8091248
  22.9353579  14.1894421  15.5509345  22.9506220  14.3863961  14.6143407
  23.4551983  13.3902296  15.6361235  16.5206787   8.9500888  13.3858089
  17.0023374   9.4546197  14.0413129  16.9708739   8.1059283  13.3549990
  14.6301708  13.2269679  20.7162837  14.2290324  12.3683912  20.5815033
  15.5711769  13.0648047  20.6496311  19.2094463  10.4208664  18.4982809
  19.2564849  10.0206184  19.3665094  19.0694979   9.6848594  17.9025125
  14.8158870   4.9599738  19.0066092  14.4941047   5.4954734  18.2814001
  15.6387857   4.5913322  18.6854039  13.4778949   0.9315161  16.6653650
  13.0572440   1.6358278  17.1585481  13.2154238   1.0848164  15.7577088
  18.2270466  12.2050206  23.0405581  18.9101623  11.5361660  23.0876571
  18.1732245  12.5554270  23.9296871  15.1796499  14.4870660  18.3339852
  14.7577573  14.1417199  19.1207346  14.4565201  14.6629123  17.7319942
  16.6353113  12.5908835  16.6859232  17.2665521  13.1046036  16.1820794
  16.1003504  13.2441539  17.1367963  18.8013880  13.3470465  15.3291033
  19.3456396  13.3074556  14.5426844  19.4266188  13.3371735  16.0538245
  17.7031825  10.1747151  15.4830936  17.5897196  10.9611360  16.0168541
  17.9484998   9.4935803  16.1092778  23.6204588   6.9331419   4.5713834
  22.8560416   6.5754129   5.0229673  24.3685470   6.5211850   5.0036882
  17.8016576   7.1860828   3.8055217  17.1589362   6.7694392   4.3795855
  18.6008073   7.2272720   4.3307789  16.9779912  11.9039331   3.9746394
  17.8526965  11.5313082   3.8638554  17.0816067  12.8288799   3.7511019
  15.8310315   3.3451527   4.5528335  15.7774228   2.9080738   5.4027276
  15.1389468   2.9393605   4.0307383  23.4973787   9.2938148   3.2591258
  23.3150811   8.5647984   3.8520293  24.4527813   9.3389175   3.2216620
  19.1705085   3.8615801   5.6205931  19.9058811   4.4709007   5.5558818
  18.7721125   3.8737127   4.7503257  19.7509066   8.1636124   5.5476062
  19.3226075   8.6041325   6.2815910  20.1840745   8.8678899   5.0653297
  18.8461365  10.2375585   7.2089904  19.4466589  10.9810745   7.2617995
  17.9860804  10.6337889   7.0692163  20.5543004  10.0931563   3.7773105
  19.9333412   9.9194122   3.0698824  21.4103606   9.8915977   3.3994656
  19.7984214   2.1629747   8.0031074  19.6145865   2.2054724   7.0646882
  19.9041713   3.0766712   8.2680744  18.6993609   9.4716089   9.7978241
  17.8153696   9.6650705  10.1098558  18.6452379   9.5720980   8.8474534
  17.8375436   6.1072238   8.0984577  17.1999971   6.8198844   8.1418304
  17.4744673   5.4999549   7.4537625  20.3253264  11.3135074  11.2419645
  19.9307849  11.9892541  10.6906612  19.9098311  10.4994913  10.9574063
  13.8201455   8.0546539   5.3137969  14.0261399   8.4907187   4.4869683
  14.4583764   7.3439387   5.3752544  14.3292185   9.9043388   7.4068399
  13.7001162   9.3085617   7.0000087  14.9607633   9.3282076   7.8374859
  22.5362332   4.4192008  10.7928243  21.9718259   3.7906371  11.2429175
  23.2836040   4.5332391  11.3799052  24.9370914   5.1222689   6.1500205
  24.3475957   4.5701602   6.6637351  25.1517522   4.5933668   5.3816357
  15.6607195   7.7709509   8.9365893  14.8930063   7.4184040   9.3866548
  16.0352975   8.3968399   9.5564168  21.2215881   6.0397775   5.8199765
  21.5134436   6.2692416   6.7022454  20.6761653   6.7780622   5.5485332
  20.2801908   5.0432433   8.5481342  19.4478584   5.4641736   8.3330242
  20.7675468   5.7097399   9.0323846  24.6145040   7.9090295   9.8918058
  25.3919859   7.6760563   9.3843835  24.8214565   7.6366266  10.7857852
  17.9681727   9.5467057   2.3921634  17.4250354   9.4491533   1.6100399
  17.7542445   8.7836537   2.9290231  14.9919797   5.1304455   7.8667673
  14.8727269   5.2139818   8.8128288  14.1209489   4.9145629   7.5337028
  18.2511235   5.4900832  10.7356846  18.2178858   5.3599785   9.7879506
  18.8495123   6.2275378  10.8553651  23.2678334  10.3908909   9.6623688
  24.0690150   9.8821936   9.5376009  23.1253179  10.3849649  10.6088814
  23.2992641  12.7608418   8.1270866  23.1457417  13.4874619   8.7309789
  23.2814163  11.9807664   8.6815194  22.7213301  10.2645980  12.4919485
  22.7130815   9.3668612  12.8239613  21.8029853  10.5341110  12.5073573
  23.0997038   4.1523686   8.0324391  23.1318904   4.0930675   8.9872581
  22.1721811   4.2768143   7.8313255  17.7939170  14.6079867   4.9064290
  18.6000052  14.0936840   4.9505462  18.0332703  15.3856587   4.4022781
  14.0225989   5.3634691  10.4001154  14.5506349   4.9161806  11.0614345
  13.7046235   6.1516595  10.8404328  20.3776102   7.4993886  11.0537712
  19.5826352   8.0046455  10.8835886  20.9765692   7.7513028  10.3509062
  16.0583797   4.3442838  11.8978051  16.4590839   3.9728028  12.6837249
  16.7992479   4.6319592  11.3643362  19.2717842   0.9473053  10.5627651
  18.3413585   1.0885350  10.7376763  19.4160963   1.3406181   9.7021195
  22.0735501   7.6133743   8.7607410  22.8736623   7.6073572   9.2861133
  22.1862566   8.3509637   8.1611654  26.4427283   6.2598539   8.2662980
  26.1013895   5.6105057   8.8811693  25.8212434   6.2503181   7.5383575
  18.8843729  13.1301609   9.8032227  18.0392559  13.3132007   9.3927286
  19.4482819  12.8577909   9.0793076  22.6088172  14.5660489  10.1155094
  23.1671897  15.3424920  10.1553614  21.7878489  14.8806004   9.7369594
  14.2858578  10.3424551   3.4012815  15.1412420  10.7717905   3.3864219
  13.7798390  10.7932324   2.7252811  13.5333855  13.5249726   3.3195630
  13.5721110  13.3045327   4.2502286  14.0094118  14.3524444   3.2494118
  15.5786032   6.0225136   5.4435124  15.3683514   5.7530621   6.3376164
  15.5520143   5.2111605   4.9363328  16.7364728   1.6019335  10.9387290
  16.1586152   1.0428225  10.4193955  16.2838755   2.4445180  10.9766607
  16.2867770  10.1243407  11.0130128  16.3576494   9.7893978  11.9068932
  15.9744373  11.0230309  11.1180441  20.4628275  12.6963191   7.8019404
  20.2463954  12.7404978   6.8705773  21.4180913  12.6393808   7.8234095
  16.7104684  13.7806123   7.3173148  17.0437661  14.1608999   6.5045874
  16.6389072  12.8442674   7.1319256  16.5697459  11.3133904   6.5531727
  15.7048681  10.9562803   6.7548919  16.5364383  11.5068496   5.6163184
  19.8886321  12.6428140   4.9481880  20.0718528  11.7158433   4.7952586
  20.2629646  13.0894064   4.1888052  23.6891609  11.9566404   5.4507616
  24.3718322  11.2868377   5.4902094  23.6195097  12.2808156   6.3486987
  23.6563673  15.3049125  12.9926836  23.4151023  15.2733314  12.0669268
  24.4595614  15.8251890  13.0132583   6.9594327  23.6293008  19.4861494
   7.2612662  23.2328808  18.6688493   6.1074061  24.0073999  19.2686094
   5.1696168  23.6537598  21.8585853   4.6022870  22.8956688  21.7183471
   5.8161646  23.6025515  21.1546070   7.5261856  25.8456367  22.4768763
   6.5803084  25.7091111  22.4229415   7.7055516  25.9116749  23.4147988
   4.1453343  21.2895456  20.5681828   4.8667684  20.6687720  20.4661786
   3.9394795  21.5663418  19.6753001   8.8956718  18.3978018  18.3891106
   9.5078256  17.7730466  18.7779302   9.1644804  19.2467097  18.7402931
   5.7909888  26.8675890  17.0580290   5.4468621  27.7407448  16.8698601
   6.3287556  26.9857068  17.8410276   9.3207375  20.0710069  22.1021746
   8.4514192  20.3506925  22.3890431   9.3800422  20.3672316  21.1938984
  12.0831496  19.7206160  21.8183852  11.2588757  19.7139919  22.3049657
  12.2399271  20.6449555  21.6253849   3.1153482  15.2308171  19.5137946
   3.2823774  14.2982747  19.3770544   2.4460475  15.2565129  20.1976133
   4.5376459  24.6623434  18.2183084   3.6080122  24.5479095  18.0210321
   4.7826083  25.4661107  17.7598507   5.5973590  18.7859012  14.4405462
   5.0246638  19.4838308  14.7585814   6.4329332  19.2206781  14.2702032
   9.3823495  24.4031152  18.3284931   8.7454425  25.1150730  18.3892991
   9.6564032  24.2490492  19.2325894   7.5994639  23.7784083  15.2008321
   8.2219866  23.0904782  14.9653550   8.1457461  24.5414491  15.3894494
   3.3361735  15.0477110  16.7321063   3.2255905  15.2163909  17.6678148
   3.6427932  14.1420930  16.6865855   1.4037300  15.8760543  21.6422076
   1.9347764  16.6721786  21.6220188   0.5120995  16.1868178  21.7992203
   7.7465763  21.6735141  17.2076224   7.3437457  22.3785373  16.7007678
   7.8203756  20.9462431  16.5896723   5.3936961  20.5785794  18.0154696
   6.2404708  21.0234864  17.9799430   5.6080853  19.6731922  18.2402877
   2.5114997  18.6597664  21.4789995   2.9418049  18.4575078  20.6482404
   2.4529131  19.6150828  21.4920353   4.1313952  20.9564770  15.6466589
   4.7145820  20.9209575  16.4048564   3.3368711  20.5068108  15.9343456
  11.3152659  24.9129913  23.1211514  12.1807047  24.9744138  22.7168313
  10.8172184  24.3427450  22.5354895   5.8043069  16.1365979  15.4014299
   4.9845679  15.8077942  15.7704120   5.5630488  16.9606936  14.9784728
   7.9418563  20.2998307  14.3677985   8.5938213  20.9407420  14.0842387
   8.3070309  19.4547161  14.1057665   9.7149238  22.4575171  14.2102248
   9.7314789  23.0355408  13.4474362  10.4851569  22.7104331  14.7191514
   7.0351777  26.7700402  19.4832909   7.3306532  27.4246498  20.1160724
   7.1316816  25.9345199  19.9402643   1.7643135  23.0008572  17.4844774
   1.1144989  22.5325422  18.0085518   2.4910459  22.3840667  17.3969486
   9.4069025  25.9525688  14.8317105   9.3122607  26.7797039  14.3593521
  10.3419699  25.8944427  15.0279303  10.5626512  19.1159152  16.0111780
  10.3789106  18.9589322  15.0849882   9.7788279  18.8082369  16.4663559
   2.1720275  20.1649942  17.6974806   1.3081506  20.0010871  18.0757438
   2.6775921  19.3792792  17.9055387   6.4216764  17.1116382  17.9585800
   6.2129211  16.7578312  17.0940144   7.2444097  17.5841351  17.8317394
   9.4849475  24.1596343  21.0673773   9.1463545  24.7632503  21.7286143
   8.7121821  23.6897361  20.7539109   2.8696166  26.1286934  13.2442327
   2.2143705  25.5636665  13.6536578   3.6932636  25.8856619  13.6670486
   5.4127945  25.3133122  14.8713531   5.4378025  25.9700582  15.5672635
   6.2811857  24.9111054  14.8902784   1.3174395  24.2062502  14.5921417
   1.0973586  24.0621918  15.5124913   2.1425966  23.7375442  14.4669931
   3.7533601  23.2711741  14.2920101   4.4321547  23.8641099  14.6143403
   4.0143649  22.4093137  14.6165173   8.4846271  15.4669314  15.7314482
   8.5573404  14.5263004  15.8931827   7.5423770  15.6319721  15.6974161
   2.7309723  17.5174069  15.6646459   1.8354844  17.7950742  15.8576075
   2.7884942  16.6304121  16.0198406  12.3304430  25.8876746  15.4370903
  12.9753552  26.3209477  15.9961919  11.9931458  25.1695600  15.9726030
  13.6778081  25.0054786  21.4314166  13.7911332  24.9058943  20.4861800
  14.5497682  25.2323517  21.7545977  12.7042045  24.5528347  13.0329529
  11.8544506  24.4951489  12.5961206  12.5374935  25.0834084  13.8120105
   9.1179183  17.6049625  14.2216267   9.2353536  17.1804715  13.3717749
   8.8555130  16.8962766  14.8091125  11.0206784  23.6204285  16.3562558
  11.2907044  22.7874112  16.7427786  10.3370367  23.9457915  16.9419219
   9.3083796  20.9487324  19.4114582   8.7809365  21.2263408  18.6624794
  10.1408221  21.4083197  19.3016820  11.7029409  21.1422618  17.4399190
  12.2769871  20.7038503  18.0680099  11.3702342  20.4360378  16.8860366
  13.2548815  19.5874152  19.0342915  12.9469567  19.4663286  19.9324853
  13.9789489  18.9679296  18.9437611  10.6074790  17.0500048  21.9170841
  11.1080642  17.1041723  21.1030127  10.2898150  17.9411432  22.0626653
  10.7636389  16.5280842  19.0276729  10.7037674  15.5728905  19.0435535
  11.3399493  16.7196754  18.2878141   4.0939777  17.7663587  18.9375730
   3.8103696  16.9623472  19.3727324   4.8944929  17.5187088  18.4748886
   6.8312193  15.8451910  20.1531648   7.7293777  16.1451217  20.2931106
   6.6265214  16.1119507  19.2569673  11.2260164  15.7362734  15.2189195
  11.2023009  16.2653668  14.4215930  10.3209993  15.7321254  15.5306224
   6.5158305  23.8451440   4.1663785   5.6669058  23.9211750   4.6020138
   6.8847759  23.0280276   4.5016873   6.4579545  26.3049652   2.9282222
   7.2185784  26.6526160   3.3938639   6.3710530  25.4070342   3.2482218
   3.8559378  20.0689610   3.3448539   4.7194604  19.7731262   3.6330248
   4.0167203  20.4912786   2.5010360  13.2428831  21.2081465   7.7530106
  12.6080431  21.8640083   7.4648173  13.0907395  21.1249692   8.6943743
  10.5025995  19.5628273   5.5780601   9.7204990  19.3042817   6.0656100
  10.4220351  20.5117619   5.4818087  13.4904007  19.5042130   5.6643184
  12.6797461  19.7303617   5.2083276  13.5060256  20.0831454   6.4264372
   8.7187436  25.4030759   5.5945499   9.5825724  25.2253825   5.2224521
   8.1332846  24.7964902   5.1412030  11.1334810  24.5959284   4.6139342
  10.8788911  24.7068819   3.6979074  11.9495928  25.0891540   4.6971325
   9.0459801  21.8945678   7.0873507   8.5434101  22.4847229   7.6489307
   8.4761724  21.7372616   6.3344857  12.2127935  21.8500993  10.3136831
  12.2889175  22.8039081  10.3398698  11.2824067  21.6882816  10.1573906
   5.5787231  18.8836195   7.9681934   5.3343932  19.1410568   8.8571595
   5.0007710  18.1483198   7.7643858   9.9593325  20.6113072   9.3229584
   9.1817668  20.3471582   9.8147396   9.6230049  20.8742534   8.4662350
   7.0694202  22.3563243  11.3906300   6.2006674  21.9915363  11.2220178
   7.6717408  21.6356197  11.2061672   2.7007539  18.2684413   6.0463930
   2.2760602  19.1132011   5.8972355   2.9081140  17.9464075   5.1691656
   3.6919148  22.1234075  11.0656032   3.3732203  22.8003911  10.4686452
   3.5677063  22.4960094  11.9385132   3.7357413  17.6201261  12.9841311
   3.0909516  17.5718802  13.6899289   4.5062744  18.0169718  13.3903627
   7.3282830  21.6050202   5.0448528   6.8176218  21.6115067   5.8544298
   7.2534535  20.7071455   4.7216604   2.1850724  20.8829910   5.3340721
   2.1328050  21.8379914   5.2956761   2.7837095  20.6471974   4.6253642
   6.6267257  18.6793511   4.3342575   7.1629303  18.3096786   5.0357265
   5.9320814  18.0348770   4.1987795  10.4232368  14.6365135  10.2348335
  10.5275390  13.9757316   9.5502020  10.8170487  15.4273438   9.8664160
   4.4019815  23.7389777   6.1827445   4.8352250  22.9981323   6.6066313
   3.9893686  24.2182560   6.9012672  10.2419349  24.5719482   2.0367149
  10.4246885  23.6523027   1.8441399   9.8027567  24.8984193   1.2513672
   7.1497740  24.7563452  12.3789856   7.2616423  23.8081938  12.3102372
   6.5179112  24.8721383  13.0886145  12.9994130  26.9949058   8.6578500
  12.3820543  27.3275346   8.0063454  13.8455287  27.3547352   8.3916869
   7.5031300  25.0358540   0.6873080   7.0137258  25.6254485   1.2609749
   7.4073536  24.1737262   1.0920234   8.3331393  18.5754111   6.8003117
   8.6842945  17.7413586   7.1122063   7.6235724  18.7793617   7.4095333
   6.0582269  21.5818916   7.3314401   5.8403473  22.0210112   8.1535924
   5.8726726  20.6575762   7.4970977  11.9645603  18.5253159   8.1533519
  11.4236122  19.1683636   8.6117148  12.1321094  18.9198107   7.2974705
   3.2971415  26.6186520  10.3666469   3.3146045  26.2489587  11.2494004
   3.3958102  27.5613961  10.4998012   8.3927956  25.8632933  10.3129648
   8.5722903  26.8025442  10.2702869   7.9947667  25.7343882  11.1738877
  10.0397909  23.7428493  11.7556955  10.6400569  23.6943270  11.0116806
   9.2686342  24.1940598  11.4122451   4.4574310  16.4967397   6.8006486
   3.8877106  17.2438043   6.6174956   3.9097767  15.8961594   7.3062274
   3.2999263  24.3010655   8.7579879   4.1653388  23.9716213   9.0003918
   3.2141208  25.1247536   9.2379954   5.8151275  23.5617102   9.2914052
   6.3437531  23.6666967  10.0824581   6.4287540  23.7098814   8.5718639
   8.0200264  24.4559977   7.9736100   8.2657341  25.0538409   7.2676050
   8.1932421  24.9486558   8.7758046   4.7259330  19.7020049  10.3792597
   4.1544616  19.0112465  10.7146775   4.2020867  20.5002569  10.4471614
   7.8285008  19.5361020  10.7862777   7.0816403  19.0001653  10.5194387
   8.3885952  18.9373812  11.2803015  11.8146041  24.5417565   9.5140752
  11.9076166  24.1426749   8.6490235  12.2809984  25.3747804   9.4449425
  10.0804143  18.0847978  11.3335445  10.9447665  17.8520783  11.6726150
  10.1331097  17.8995443  10.3959219  11.1535373  21.9499162   4.2361409
  11.1154395  22.8845270   4.4393232  11.9630456  21.8463569   3.7359373
  11.6601853  23.1376116   6.9381987  10.7883099  22.7721579   7.0882277
  11.5764557  23.6293066   6.1212181  11.7281702  15.8624130   8.0165196
  11.9076097  16.7599087   7.7362789  11.8564962  15.3351081   7.2280313
   4.1170475  16.3396617  10.5297316   3.9064445  16.8337416  11.3220467
   5.0565571  16.4746597  10.4059211   6.8780910  16.7272448  10.3432394
   7.5378197  16.6701558   9.6520588   7.3286013  16.4208400  11.1302517
   8.4489577  14.0998584   7.4062223   8.2541802  14.3287717   6.4974361
   7.6511029  13.6762525   7.7227940   8.9267121  16.5291206   8.4375873
   8.5877205  15.6618794   8.2157556   9.8622618  16.4778781   8.2417486
   5.3437448  16.2849121   4.2338957   5.1967956  16.3580003   5.1769206
   5.2461396  15.3510328   4.0479534  10.8776184  17.1122937   4.2433157
  11.7947199  16.9544446   4.0191721  10.8658953  18.0044770   4.5898752
   8.8536816  15.5717669   2.3809470   9.6259244  16.0205801   2.7250977
   8.1661657  16.2377163   2.3890297   8.5355614  15.5982140  12.1937737
   8.2905735  14.7717053  12.6098219   9.2254113  15.3594556  11.5746344
   7.0692589   3.9439156  20.1633153   7.4252885   3.1049503  19.8707198
   6.5990020   4.2832175  19.4017613   6.9145213   6.4400251  21.4499046
   7.8291221   6.1934064  21.5874414   6.5762518   5.7785571  20.8463603
  10.8660541  10.9348601  20.4050408  10.4739875  10.4126413  21.1049001
  11.2649194  11.6789441  20.8561253   6.0092577  13.1107688  20.7568738
   5.1539587  13.1419616  20.3282453   6.2868551  14.0255986  20.8043928
   4.2957134   7.3262919  20.7259299   4.9907289   7.0923856  21.3411316
   4.4969667   6.8254010  19.9354634   7.4103784   8.3781008  17.5538217
   6.5346754   8.4182661  17.1694222   7.6088259   9.2835077  17.7927543
   8.1262766  12.4744359  22.3873575   8.4373839  11.5692750  22.3760531
   7.3648328  12.4732503  21.8073284  10.6882423  10.0106952  17.6634592
  10.6060809   9.0572891  17.6411390  10.7000630  10.2283210  18.5955167
   5.7873637   6.0020440  18.6867223   5.7071961   5.8092834  17.7525658
   6.5075003   6.6303127  18.7406999  10.0555826   7.3987333  17.6858698
   9.1190823   7.5761172  17.7738128  10.2073239   6.6328596  18.2396243
   7.3877048   7.3406742  14.5794811   8.0784889   6.7295197  14.8354875
   7.7848090   8.2060023  14.6782095   7.3846875  10.6307173  19.3079026
   8.1833557  11.1204827  19.5040932   6.6975824  11.0894397  19.7913199
   7.6853254  12.6969932  16.3585819   8.1238775  12.5954942  17.2033315
   7.8166427  11.8573571  15.9181290   8.7747547  13.2116400  18.7791430
   9.6349100  13.4218895  19.1426811   8.1623186  13.7377638  19.2932905
   7.8977527   2.5112179  17.8136508   7.0712370   2.1136017  17.5397805
   8.3531781   2.7053852  16.9944325   3.7933499   1.9679949  16.8209653
   3.1325840   2.6533298  16.7212834   3.4986030   1.2650735  16.2419510
  10.4649743   7.2003239  21.6269630  11.3475612   7.5483312  21.4998290
  10.3263363   6.6197714  20.8786514   9.7546640   3.4475834  15.9598582
   9.5864602   4.3549808  15.7057534  10.1239267   3.0434836  15.1746319
   4.8158931   9.0500181  16.7284903   4.8652207   9.5202669  15.8962255
   3.8797002   9.0042334  16.9225996   9.6096020   5.7638103  14.7535844
   9.6342419   6.1212741  13.8659784  10.2650889   6.2697214  15.2338164
  12.2444477  12.0868981  16.9639593  11.6045470  11.4437538  17.2691223
  12.1035229  12.1349304  16.0184092   9.0916050   9.7049653  22.0882335
   9.3213318   8.8737124  21.6729312   8.3729005   9.4858588  22.6812664
   4.3205451  10.0865621  19.9216006   5.0196776   9.9885884  19.2751899
   4.4358371   9.3432889  20.5136179   2.3836153   7.5411102  17.2808529
   2.9994218   7.2892773  17.9690349   1.5248305   7.2995151  17.6277712
  10.0664662   9.5090682  15.0691741  10.2134879   9.8378845  15.9560204
  10.7960992   8.9097925  14.9118967   4.4092535  10.5509938  14.4455364
   4.7226106   9.8992380  13.8184371   3.7467415  11.0469768  13.9645888
   3.6830734  12.7704733  18.9701035   4.2035025  12.5375061  18.2012656
   3.4985900  11.9338069  19.3969373   9.5810089   5.1493734  19.2135715
   8.6481853   5.1647411  19.4276643   9.8689891   4.2705706  19.4605631
  11.9752974  13.0953587  21.6355015  11.4623166  13.5813277  22.2811924
  12.8550978  13.4669136  21.6997673   2.2299025  12.3879436  13.2929979
   2.5260210  13.2513863  13.0048789   1.3691870  12.5469011  13.6804683
   2.3801477   8.5210716  11.5094680   2.1166091   8.1615948  12.3565545
   2.0433470   7.8951089  10.8684003   5.1552948   6.2047174  15.9823809
   4.6916790   7.0390749  15.9106883   5.9665163   6.3385874  15.4922480
   2.2575442   7.0698175  13.9694776   1.9474921   7.1616520  14.8704027
   3.0237342   6.5000310  14.0367687   4.4356728   5.5238570  13.3358574
   5.2429059   5.3922641  12.8385748   4.6871218   5.3682466  14.2462368
   4.9291159  12.4583026  16.4141125   5.8747375  12.6066994  16.4172833
   4.7729298  11.9253003  15.6345316  12.3555203   7.5228077  14.8162900
  13.0514801   8.1665254  14.9485747  12.6181455   6.7730006  15.3501900
  12.5530732   8.6135220  20.6142700  12.0122020   9.3023248  20.2279530
  13.4292227   8.9959244  20.6628738  12.9416060   7.1061775  12.3563414
  12.7582810   7.8376213  11.7667536  12.6749759   7.4218747  13.2197506
  12.8209511   5.6832893  16.8510897  12.7103902   4.7328914  16.8785125
  12.2681882   6.0093113  17.5612972  10.7075040   3.0320900  20.0279976
  10.4717567   2.4854421  20.7775515  11.4298140   3.5744157  20.3448302
  11.9867882   2.8371771  17.6336292  11.5764562   2.6542672  18.4788531
  11.2611781   2.8336573  17.0093620  11.1983369  13.7991407  19.3208537
  11.5750779  13.2292392  18.6503983  11.5917290  13.4979679  20.1398589
  10.3059794  14.4381243  22.9506683  10.2427015  15.3661251  22.7247429
   9.4214885  14.0979384  22.8158299  13.1608918  14.7270204  16.6113646
  12.8169949  13.8430310  16.4827972  12.5686312  15.2893795  16.1121539
   5.0844704   8.2320808   2.7419727   5.1408164   7.7623234   3.5740694
   4.1973402   8.5913473   2.7293462   8.7895377  11.2558285   3.1445933
   8.4004973  10.8731672   2.3581776   9.6166899  11.6321158   2.8438293
   5.5340224  10.8405378   3.2825306   5.3305935  10.1288727   2.6755863
   6.2650823  10.5090186   3.8039501  11.3322577  12.0058858   5.0454940
  11.0341272  12.8623013   5.3519293  11.6280744  12.1620675   4.1486486
   8.3514994  14.0886875   4.7210498   7.8502108  13.3077493   4.4863647
   8.4942038  14.5405833   3.8893903   8.9633733   8.4500476   6.4444283
   8.8452438   8.1283378   5.5506834   9.8071899   8.9015975   6.4268764
  11.4865544   6.9677949   5.8146159  11.0251918   7.0251536   4.9779042
  12.2215499   7.5743995   5.7249258   9.4953031   4.2847759   7.4694287
   8.8685690   4.0881171   8.1656769   9.0310719   4.8927065   6.8939796
  10.4878965  12.5029117   8.3187208  10.0569418  13.2155575   7.8468671
   9.7866917  11.8769642   8.4996442  13.0419648   8.6639848  10.2788919
  13.4676756   9.3703311   9.7930143  12.3119161   8.3956427   9.7209912
   6.2151745  13.2042366   8.7701668   6.1903018  12.4260384   9.3269619
   5.3066848  13.5038151   8.7365354   9.6953042   3.2479217  12.2994308
   9.7269013   2.6827078  11.5275716  10.2143416   4.0145551  12.0563152
   7.0253275   4.7653319  12.4693051   7.6144233   4.0927950  12.8111999
   7.5950805   5.5125523  12.2868907   1.0240775   5.1166326  11.8088931
   1.5100440   5.2740763  12.6183867   1.3804926   5.7521095  11.1881120
   7.5794049   4.8718425   4.9555107   7.2061268   4.1184967   4.4979461
   6.8286356   5.2954283   5.3716264   4.4145227   7.6116598   5.4026486
   4.5269883   6.8560700   5.9794219   3.9948681   8.2728060   5.9531098
   8.9634328   7.1267015   4.0174721   8.8406043   7.2409733   3.0750885
   8.5486394   6.2864784   4.2129290   5.8675879   8.5964846   8.5895111
   6.7611725   8.2536596   8.6039812   5.3359886   7.8662225   8.2727285
   6.0406136  10.7806746  10.0702258   5.8403580   9.9454276   9.6477426
   5.2858923  10.9510467  10.6337867  11.0965975   7.7965774   8.5690000
  10.9560174   8.5347040   7.9760092  11.2592684   7.0518600   7.9900648
   7.6045100   7.1785900   1.6339029   7.3594799   6.9642574   0.7337620
   6.8619965   7.6795696   1.9714307   5.5110075  12.2449855   6.2109728
   5.3867207  12.6180273   7.0836838   6.3454512  11.7792735   6.2661798
   8.0323943  11.0498721   6.1422478   8.3046909  10.1343152   6.2042314
   8.4488509  11.3699618   5.3420363   8.4951938  10.9690443   8.9557329
   7.6694042  10.8480550   9.4244173   8.2556918  10.9147464   8.0305722
   3.4106588  10.9769493  11.2264930   3.0610624  10.1090077  11.4282143
   2.8754479  11.5772930  11.7455004   5.0109557   5.3031595   6.7411565
   5.3249676   5.1940740   7.6387804   4.3701014   4.6017507   6.6246952
  11.1738995  12.6766406   2.2996501  12.1019195  12.8478893   2.4599143
  10.8481276  13.4810864   1.8959528   5.7060739   8.7980296  12.6769918
   4.9665742   8.5537927  12.1204665   6.0420652   7.9651060  13.0080206
   1.6540051   6.8930304   9.4053679   0.8496914   6.6314242   8.9571785
   1.9645870   7.6542781   8.9151918   8.8377917   9.3819802  11.3406739
   7.9325881   9.5471188  11.6044303   9.0325886  10.0728506  10.7074409
   9.4840226   6.6231262  12.0463325  10.3202886   6.5473357  11.5868253
   9.2225915   7.5350948  11.9190573   3.3819994   8.6705440   7.6018950
   4.1277484   9.0735737   8.0464818   2.7703761   9.3925776   7.4576167
   6.3585864   5.1334573   9.2043725   6.2638071   4.8841283  10.1236569
   7.0262213   5.8193622   9.2098477   8.1970047   7.1664224   8.6263761
   8.4554402   7.5433108   7.7853065   9.0017347   7.1629477   9.1446709
   3.3657963  14.2316689   8.8938354   3.7042342  15.0094881   9.3373316
   2.4907849  14.1079361   9.2616358  11.2478012   9.9494024   6.9221313
  11.6241280  10.5948556   7.5204623  11.2358847  10.3891952   6.0720300
  11.3238949   5.3299199   9.9570602  12.2328783   5.0458445   9.8607160
  11.1725762   5.9067148   9.2082998  13.8981407   1.9471260   2.9816402
  13.0726613   1.4709058   3.0712502  13.6903458   2.6795670   2.4014822
  12.5071405   4.7986222   6.9559070  11.7644083   4.3619049   7.3728707
  12.1226050   5.5556307   6.5139766   2.9739581  11.6442358   6.9809181
   3.0327819  12.5310864   7.3362597   3.6509739  11.6116307   6.3050347
  13.7453827  13.4188355   6.0670538  13.0840424  14.1106689   6.0519753
  13.2451554  12.6119369   6.1891979  11.0008100  14.9109432   5.6915730
  11.0065987  15.6096070   5.0373045  10.0882133  14.6244587   5.7279825
   5.1337402  13.5585069   3.6828212   5.2488577  12.8296878   3.0730650
   5.0248589  13.1410141   4.5372663   3.0181493  14.7942283  12.5982212
   3.3475960  14.9799453  11.7188999   3.4077275  15.4737426  13.1484221
  26.9529195  29.4609070  25.1772320  90.0000000  90.0000000  90.0000000
