GROningen MAchine for Chemical Simulation
 1168
    1ACE     H1    1   0.978   1.224   1.383
    1ACE    CH3    2   1.029   1.258   1.292
    1ACE     H2    3   0.967   1.336   1.249
    1ACE     H3    4   1.039   1.188   1.209
    1ACE      C    5   1.162   1.309   1.335
    1ACE      O    6   1.206   1.284   1.446
    2ALA      N    7   1.223   1.396   1.259
    2ALA      H    8   1.175   1.427   1.175
    2ALA     CA    9   1.351   1.461   1.293
    2ALA     HA   10   1.381   1.426   1.392
    2ALA     CB   11   1.464   1.423   1.192
    2ALA    HB1   12   1.455   1.469   1.093
    2ALA    HB2   13   1.561   1.456   1.228
    2ALA    HB3   14   1.481   1.315   1.192
    2ALA      C   15   1.337   1.617   1.290
    2ALA      O   16   1.234   1.669   1.246
    3NME      N   17   1.437   1.696   1.339
    3NME      H   18   1.526   1.649   1.354
    3NME      C   19   1.441   1.843   1.351
    3NME     H1   20   1.543   1.880   1.341
    3NME     H2   21   1.374   1.884   1.275
    3NME     H3   22   1.410   1.876   1.450
    4WAT      O   23   2.434   2.459   2.054
    4WAT     H1   24   2.347   2.480   2.089
    4WAT     H2   25   2.418   2.385   1.994
    5WAT      O   26   1.722   2.046   1.656
    5WAT     H1   27   1.627   2.041   1.662
    5WAT     H2   28   1.738   2.109   1.585
    6WAT      O   29   1.253   2.250   2.048
    6WAT     H1   30   1.259   2.330   2.100
    6WAT     H2   31   1.310   2.267   1.973
    7WAT      O   32   2.335   2.409   2.385
    7WAT     H1   33   2.337   2.474   2.455
    7WAT     H2   34   2.422   2.414   2.345
    8WAT      O   35   2.416   1.940   2.052
    8WAT     H1   36   2.413   1.870   1.987
    8WAT     H2   37   2.476   2.005   2.014
    9WAT      O   38   1.863   1.886   1.804
    9WAT     H1   39   1.824   1.882   1.891
    9WAT     H2   40   1.807   1.945   1.754
   10WAT      O   41   1.955   2.072   2.231
   10WAT     H1   42   1.987   2.015   2.301
   10WAT     H2   43   2.033   2.092   2.179
   11WAT      O   44   2.347   2.543   1.711
   11WAT     H1   45   2.320   2.470   1.657
   11WAT     H2   46   2.390   2.603   1.651
   12WAT      O   47   1.446   2.723   1.675
   12WAT     H1   48   1.413   2.805   1.711
   12WAT     H2   49   1.540   2.738   1.664
   13WAT      O   50   2.233   1.665   2.001
   13WAT     H1   51   2.242   1.580   1.959
   13WAT     H2   52   2.145   1.664   2.038
   14WAT      O   53   2.500   2.302   1.812
   14WAT     H1   54   2.424   2.319   1.756
   14WAT     H2   55   2.527   2.389   1.842
   15WAT      O   56   2.400   2.030   1.516
   15WAT     H1   57   2.310   2.044   1.545
   15WAT     H2   58   2.441   2.116   1.525
   16WAT      O   59   1.900   2.366   2.125
   16WAT     H1   60   1.894   2.305   2.051
   16WAT     H2   61   1.871   2.315   2.201
   17WAT      O   62   1.579   2.329   1.735
   17WAT     H1   63   1.609   2.379   1.658
   17WAT     H2   64   1.545   2.247   1.698
   18WAT      O   65   1.967   1.673   2.182
   18WAT     H1   66   1.916   1.738   2.134
   18WAT     H2   67   2.018   1.725   2.245
   19WAT      O   68   2.253   1.662   1.638
   19WAT     H1   69   2.159   1.669   1.649
   19WAT     H2   70   2.267   1.572   1.606
   20WAT      O   71   2.196   1.848   2.224
   20WAT     H1   72   2.251   1.925   2.220
   20WAT     H2   73   2.234   1.788   2.160
   21WAT      O   74   1.809   2.215   1.874
   21WAT     H1   75   1.790   2.140   1.818
   21WAT     H2   76   1.739   2.277   1.856
   22WAT      O   77   2.619   2.129   2.006
   22WAT     H1   78   2.570   2.184   1.944
   22WAT     H2   79   2.619   2.178   2.087
   23WAT      O   80   1.344   1.715   2.201
   23WAT     H1   81   1.311   1.802   2.181
   23WAT     H2   82   1.286   1.682   2.270
   24WAT      O   83   2.176   2.104   2.057
   24WAT     H1   84   2.162   2.027   2.002
   24WAT     H2   85   2.270   2.116   2.059
   25WAT      O   86   1.789   1.860   2.056
   25WAT     H1   87   1.805   1.932   2.117
   25WAT     H2   88   1.694   1.845   2.062
   26WAT      O   89   2.264   2.283   1.584
   26WAT     H1   90   2.197   2.246   1.640
   26WAT     H2   91   2.217   2.312   1.506
   27WAT      O   92   2.124   2.353   1.379
   27WAT     H1   93   2.082   2.284   1.328
   27WAT     H2   94   2.136   2.425   1.318
   28WAT      O   95   1.532   1.744   2.004
   28WAT     H1   96   1.466   1.734   2.073
   28WAT     H2   97   1.530   1.660   1.957
   29WAT      O   98   1.729   2.714   1.714
   29WAT     H1   99   1.784   2.739   1.787
   29WAT     H2  100   1.774   2.639   1.674
   30WAT      O  101   2.507   1.796   1.588
   30WAT     H1  102   2.428   1.749   1.617
   30WAT     H2  103   2.473   1.877   1.549
   31WAT      O  104   2.158   2.460   2.156
   31WAT     H1  105   2.066   2.437   2.159
   31WAT     H2  106   2.195   2.425   2.237
   32WAT      O  107   1.439   2.264   1.461
   32WAT     H1  108   1.513   2.318   1.487
   32WAT     H2  109   1.401   2.309   1.386
   33WAT      O  110   2.115   2.629   1.848
   33WAT     H1  111   2.209   2.627   1.828
   33WAT     H2  112   2.111   2.634   1.943
   34WAT      O  113   1.792   1.426   1.851
   34WAT     H1  114   1.804   1.430   1.946
   34WAT     H2  115   1.702   1.454   1.837
   35WAT      O  116   1.594   2.504   1.525
   35WAT     H1  117   1.566   2.579   1.578
   35WAT     H2  118   1.644   2.543   1.453
   36WAT      O  119   2.066   2.183   1.784
   36WAT     H1  120   1.985   2.221   1.818
   36WAT     H2  121   2.092   2.119   1.850
   37WAT      O  122   1.908   1.915   1.425
   37WAT     H1  123   1.942   1.828   1.405
   37WAT     H2  124   1.889   1.912   1.519
   38WAT      O  125   1.787   2.523   1.313
   38WAT     H1  126   1.815   2.606   1.276
   38WAT     H2  127   1.853   2.460   1.284
   39WAT      O  128   1.786   2.263   1.474
   39WAT     H1  129   1.856   2.216   1.429
   39WAT     H2  130   1.808   2.355   1.461
   40WAT      O  131   2.004   2.727   1.421
   40WAT     H1  132   1.962   2.671   1.486
   40WAT     H2  133   2.075   2.673   1.386
   41WAT      O  134   2.306   2.814   1.223
   41WAT     H1  135   2.402   2.820   1.227
   41WAT     H2  136   2.279   2.893   1.176
   42WAT      O  137   1.939   2.548   1.624
   42WAT     H1  138   1.993   2.552   1.703
   42WAT     H2  139   1.975   2.475   1.574
   43WAT      O  140   2.165   2.583   1.225
   43WAT     H1  141   2.121   2.597   1.141
   43WAT     H2  142   2.221   2.660   1.235
   44WAT      O  143   1.970   2.141   1.307
   44WAT     H1  144   1.960   2.058   1.353
   44WAT     H2  145   1.957   2.119   1.214
   45WAT      O  146   2.119   1.679   1.342
   45WAT     H1  147   2.061   1.617   1.298
   45WAT     H2  148   2.189   1.625   1.378
   46WAT      O  149   1.388   2.489   1.878
   46WAT     H1  150   1.355   2.565   1.830
   46WAT     H2  151   1.460   2.456   1.824
   47WAT      O  152   1.450   2.077   1.642
   47WAT     H1  153   1.374   2.070   1.699
   47WAT     H2  154   1.422   2.135   1.571
   48WAT      O  155   2.133   1.923   1.866
   48WAT     H1  156   2.049   1.917   1.821
   48WAT     H2  157   2.174   1.838   1.852
   49WAT      O  158   1.969   1.636   1.751
   49WAT     H1  159   1.911   1.574   1.796
   49WAT     H2  160   1.935   1.722   1.775
   50WAT      O  161   2.341   2.626   0.481
   50WAT     H1  162   2.370   2.588   0.563
   50WAT     H2  163   2.369   2.563   0.414
   51WAT      O  164   1.685   2.425   0.441
   51WAT     H1  165   1.618   2.372   0.483
   51WAT     H2  166   1.678   2.403   0.348
   52WAT      O  167   1.444   2.123   0.280
   52WAT     H1  168   1.492   2.118   0.362
   52WAT     H2  169   1.472   2.046   0.231
   53WAT      O  170   2.037   2.651   0.461
   53WAT     H1  171   2.132   2.654   0.454
   53WAT     H2  172   2.008   2.737   0.431
   54WAT      O  173   1.543   1.815   0.788
   54WAT     H1  174   1.512   1.724   0.793
   54WAT     H2  175   1.472   1.862   0.744
   55WAT      O  176   2.524   2.093   0.510
   55WAT     H1  177   2.497   2.047   0.589
   55WAT     H2  178   2.619   2.082   0.508
   56WAT      O  179   1.607   1.928   0.442
   56WAT     H1  180   1.671   1.953   0.510
   56WAT     H2  181   1.526   1.913   0.490
   57WAT      O  182   2.036   1.973   0.393
   57WAT     H1  183   2.062   2.064   0.405
   57WAT     H2  184   2.117   1.923   0.399
   58WAT      O  185   1.891   1.597   0.780
   58WAT     H1  186   1.861   1.671   0.728
   58WAT     H2  187   1.826   1.528   0.763
   59WAT      O  188   1.935   2.400   0.532
   59WAT     H1  189   1.843   2.402   0.507
   59WAT     H2  190   1.975   2.473   0.483
   60WAT      O  191   1.754   1.756   0.627
   60WAT     H1  192   1.795   1.842   0.621
   60WAT     H2  193   1.672   1.773   0.675
   61WAT      O  194   1.843   1.997   0.594
   61WAT     H1  195   1.906   1.995   0.522
   61WAT     H2  196   1.866   2.075   0.645
   62WAT      O  197   1.872   2.784   1.156
   62WAT     H1  198   1.904   2.802   1.245
   62WAT     H2  199   1.881   2.867   1.110
   63WAT      O  200   1.743   2.379   0.862
   63WAT     H1  201   1.731   2.471   0.884
   63WAT     H2  202   1.657   2.339   0.877
   64WAT      O  203   1.371   2.560   0.515
   64WAT     H1  204   1.449   2.609   0.491
   64WAT     H2  205   1.402   2.472   0.533
   65WAT      O  206   1.533   2.761   0.771
   65WAT     H1  207   1.547   2.724   0.684
   65WAT     H2  208   1.604   2.725   0.824
   66WAT      O  209   1.896   1.669   0.321
   66WAT     H1  210   1.872   1.759   0.300
   66WAT     H2  211   1.990   1.672   0.338
   67WAT      O  212   2.364   1.898   0.774
   67WAT     H1  213   2.313   1.901   0.855
   67WAT     H2  214   2.316   1.838   0.717
   68WAT      O  215   2.161   1.658   0.373
   68WAT     H1  216   2.237   1.667   0.316
   68WAT     H2  217   2.182   1.585   0.431
   69WAT      O  218   2.114   2.316   0.952
   69WAT     H1  219   2.200   2.276   0.940
   69WAT     H2  220   2.110   2.384   0.884
   70WAT      O  221   1.672   1.909   0.980
   70WAT     H1  222   1.618   1.983   1.005
   70WAT     H2  223   1.624   1.869   0.907
   71WAT      O  224   2.326   1.854   1.252
   71WAT     H1  225   2.246   1.813   1.286
   71WAT     H2  226   2.368   1.891   1.330
   72WAT      O  227   1.343   1.672   0.418
   72WAT     H1  228   1.370   1.743   0.477
   72WAT     H2  229   1.418   1.659   0.359
   73WAT      O  230   2.389   2.346   0.432
   73WAT     H1  231   2.317   2.293   0.399
   73WAT     H2  232   2.447   2.284   0.477
   74WAT      O  233   2.364   1.931   0.390
   74WAT     H1  234   2.365   1.950   0.296
   74WAT     H2  235   2.433   1.987   0.427
   75WAT      O  236   1.778   1.905   0.250
   75WAT     H1  237   1.850   1.949   0.295
   75WAT     H2  238   1.700   1.928   0.302
   76WAT      O  239   1.655   2.621   0.966
   76WAT     H1  240   1.575   2.607   1.017
   76WAT     H2  241   1.711   2.674   1.023
   77WAT      O  242   2.153   2.197   0.500
   77WAT     H1  243   2.206   2.205   0.579
   77WAT     H2  244   2.079   2.255   0.515
   78WAT      O  245   1.923   2.200   0.768
   78WAT     H1  246   1.861   2.272   0.779
   78WAT     H2  247   2.009   2.239   0.783
   79WAT      O  248   2.349   2.508   0.972
   79WAT     H1  249   2.282   2.575   0.961
   79WAT     H2  250   2.343   2.483   1.064
   80WAT      O  251   1.665   2.674   0.542
   80WAT     H1  252   1.739   2.721   0.504
   80WAT     H2  253   1.677   2.584   0.514
   81WAT      O  254   1.475   2.353   0.877
   81WAT     H1  255   1.458   2.409   0.953
   81WAT     H2  256   1.429   2.272   0.897
   82WAT      O  257   1.879   2.361   1.099
   82WAT     H1  258   1.839   2.381   1.014
   82WAT     H2  259   1.972   2.348   1.079
   83WAT      O  260   2.280   2.194   0.736
   83WAT     H1  261   2.353   2.255   0.747
   83WAT     H2  262   2.312   2.112   0.772
   84WAT      O  263   1.458   2.469   1.113
   84WAT     H1  264   1.532   2.433   1.161
   84WAT     H2  265   1.385   2.465   1.175
   85WAT      O  266   2.049   2.634   1.000
   85WAT     H1  267   1.968   2.680   1.023
   85WAT     H2  268   2.031   2.595   0.914
   86WAT      O  269   1.648   2.285   1.194
   86WAT     H1  270   1.661   2.270   1.288
   86WAT     H2  271   1.732   2.318   1.163
   87WAT      O  272   1.926   2.049   1.029
   87WAT     H1  273   1.839   2.010   1.024
   87WAT     H2  274   1.944   2.078   0.940
   88WAT      O  275   1.775   1.651   1.049
   88WAT     H1  276   1.817   1.632   0.965
   88WAT     H2  277   1.761   1.746   1.048
   89WAT      O  278   2.140   1.716   0.671
   89WAT     H1  279   2.100   1.745   0.589
   89WAT     H2  280   2.067   1.680   0.721
   90WAT      O  281   2.062   2.491   0.751
   90WAT     H1  282   2.119   2.559   0.716
   90WAT     H2  283   2.002   2.471   0.679
   91WAT      O  284   2.473   2.385   0.742
   91WAT     H1  285   2.551   2.361   0.793
   91WAT     H2  286   2.423   2.442   0.800
   92WAT      O  287   2.225   1.973   1.006
   92WAT     H1  288   2.258   1.967   1.096
   92WAT     H2  289   2.132   1.996   1.016
   93WAT      O  290   1.465   2.310   0.611
   93WAT     H1  291   1.474   2.354   0.695
   93WAT     H2  292   1.410   2.234   0.630
   94WAT      O  293   1.508   2.100   1.050
   94WAT     H1  294   1.417   2.107   1.079
   94WAT     H2  295   1.556   2.161   1.106
   95WAT      O  296   1.577   1.634   0.322
   95WAT     H1  297   1.600   1.627   0.415
   95WAT     H2  298   1.653   1.676   0.282
   96WAT      O  299   1.454   1.559   0.787
   96WAT     H1  300   1.368   1.538   0.824
   96WAT     H2  301   1.486   1.475   0.754
   97WAT      O  302   2.362   1.711   1.033
   97WAT     H1  303   2.332   1.766   1.106
   97WAT     H2  304   2.408   1.772   0.975
   98WAT      O  305   2.282   1.456   0.487
   98WAT     H1  306   2.308   1.479   0.576
   98WAT     H2  307   2.309   1.365   0.476
   99WAT      O  308   1.953   1.490   1.195
   99WAT     H1  309   1.906   1.569   1.167
   99WAT     H2  310   1.940   1.428   1.123
  100WAT      O  311   2.405   0.710   2.013
  100WAT     H1  312   2.382   0.619   1.997
  100WAT     H2  313   2.444   0.740   1.930
  101WAT      O  314   1.706   1.175   2.001
  101WAT     H1  315   1.760   1.180   1.922
  101WAT     H2  316   1.768   1.187   2.073
  102WAT      O  317   1.608   0.155   1.622
  102WAT     H1  318   1.517   0.131   1.639
  102WAT     H2  319   1.655   0.072   1.622
  103WAT      O  320   1.259   0.498   2.066
  103WAT     H1  321   1.274   0.580   2.114
  103WAT     H2  322   1.344   0.479   2.025
  104WAT      O  323   2.467   1.250   1.954
  104WAT     H1  324   2.401   1.307   1.914
  104WAT     H2  325   2.530   1.310   1.993
  105WAT      O  326   2.306   0.879   2.264
  105WAT     H1  327   2.317   0.837   2.179
  105WAT     H2  328   2.392   0.918   2.283
  106WAT      O  329   2.199   0.590   2.243
  106WAT     H1  330   2.289   0.587   2.210
  106WAT     H2  331   2.200   0.659   2.309
  107WAT      O  332   2.567   0.751   1.754
  107WAT     H1  333   2.527   0.783   1.673
  107WAT     H2  334   2.575   0.828   1.810
  108WAT      O  335   1.539   0.832   1.602
  108WAT     H1  336   1.577   0.876   1.526
  108WAT     H2  337   1.504   0.903   1.656
  109WAT      O  338   2.375   0.532   1.776
  109WAT     H1  339   2.291   0.564   1.743
  109WAT     H2  340   2.438   0.599   1.749
  110WAT      O  341   1.995   0.597   2.018
  110WAT     H1  342   1.956   0.511   2.003
  110WAT     H2  343   2.045   0.588   2.099
  111WAT      O  344   2.010   1.002   2.292
  111WAT     H1  345   1.967   0.953   2.222
  111WAT     H2  346   2.103   0.985   2.278
  112WAT      O  347   2.455   1.005   1.863
  112WAT     H1  348   2.450   1.043   1.776
  112WAT     H2  349   2.462   1.081   1.922
  113WAT      O  350   1.691   0.387   1.763
  113WAT     H1  351   1.677   0.458   1.700
  113WAT     H2  352   1.663   0.308   1.716
  114WAT      O  353   1.483   1.026   2.013
  114WAT     H1  354   1.494   1.029   1.918
  114WAT     H2  355   1.568   1.052   2.048
  115WAT      O  356   2.027   1.298   1.800
  115WAT     H1  357   1.996   1.209   1.816
  115WAT     H2  358   1.952   1.354   1.822
  116WAT      O  359   1.835   0.362   1.993
  116WAT     H1  360   1.789   0.294   2.042
  116WAT     H2  361   1.786   0.370   1.911
  117WAT      O  362   1.297   0.189   1.408
  117WAT     H1  363   1.331   0.276   1.388
  117WAT     H2  364   1.216   0.183   1.357
  118WAT      O  365   2.450   0.321   1.517
  118WAT     H1  366   2.492   0.310   1.602
  118WAT     H2  367   2.357   0.311   1.535
  119WAT      O  368   2.170   0.431   1.402
  119WAT     H1  369   2.155   0.355   1.346
  119WAT     H2  370   2.258   0.461   1.379
  120WAT      O  371   1.844   0.813   1.719
  120WAT     H1  372   1.761   0.769   1.736
  120WAT     H2  373   1.910   0.748   1.742
  121WAT      O  374   1.922   0.859   2.088
  121WAT     H1  375   1.952   0.783   2.037
  121WAT     H2  376   1.844   0.828   2.134
  122WAT      O  377   2.405   0.887   1.586
  122WAT     H1  378   2.400   0.981   1.570
  122WAT     H2  379   2.314   0.858   1.590
  123WAT      O  380   2.194   0.903   1.825
  123WAT     H1  381   2.283   0.930   1.850
  123WAT     H2  382   2.145   0.985   1.819
  124WAT      O  383   1.361   0.450   1.307
  124WAT     H1  384   1.453   0.449   1.283
  124WAT     H2  385   1.330   0.538   1.285
  125WAT      O  386   2.089   0.666   1.759
  125WAT     H1  387   2.123   0.750   1.791
  125WAT     H2  388   2.078   0.613   1.839
  126WAT      O  389   2.066   1.057   1.498
  126WAT     H1  390   2.059   1.148   1.467
  126WAT     H2  391   1.977   1.035   1.527
  127WAT      O  392   1.651   0.579   1.559
  127WAT     H1  393   1.605   0.659   1.585
  127WAT     H2  394   1.703   0.604   1.483
  128WAT      O  395   2.332   1.138   1.511
  128WAT     H1  396   2.352   1.156   1.419
  128WAT     H2  397   2.238   1.119   1.511
  129WAT      O  398   2.262   1.427   1.868
  129WAT     H1  399   2.264   1.468   1.781
  129WAT     H2  400   2.187   1.367   1.865
  130WAT      O  401   1.808   0.659   1.351
  130WAT     H1  402   1.894   0.650   1.393
  130WAT     H2  403   1.809   0.593   1.281
  131WAT      O  404   1.702   0.334   1.419
  131WAT     H1  405   1.700   0.253   1.471
  131WAT     H2  406   1.672   0.402   1.479
  132WAT      O  407   1.836   1.429   2.111
  132WAT     H1  408   1.832   1.381   2.194
  132WAT     H2  409   1.872   1.515   2.136
  133WAT      O  410   1.468   1.062   1.732
  133WAT     H1  411   1.387   1.111   1.718
  133WAT     H2  412   1.538   1.121   1.703
  134WAT      O  413   2.072   1.294   1.332
  134WAT     H1  414   2.049   1.371   1.279
  134WAT     H2  415   2.067   1.221   1.271
  135WAT      O  416   2.235   0.741   1.300
  135WAT     H1  417   2.155   0.763   1.349
  135WAT     H2  418   2.203   0.721   1.212
  136WAT      O  419   2.497   0.706   1.277
  136WAT     H1  420   2.405   0.733   1.280
  136WAT     H2  421   2.531   0.727   1.364
  137WAT      O  422   2.023   0.641   1.496
  137WAT     H1  423   2.060   0.651   1.584
  137WAT     H2  424   2.059   0.558   1.465
  138WAT      O  425   2.433   0.447   1.273
  138WAT     H1  426   2.463   0.414   1.357
  138WAT     H2  427   2.491   0.521   1.255
  139WAT      O  428   2.153   0.208   1.226
  139WAT     H1  429   2.191   0.121   1.236
  139WAT     H2  430   2.070   0.193   1.181
  140WAT      O  431   2.294   1.419   1.555
  140WAT     H1  432   2.295   1.439   1.461
  140WAT     H2  433   2.346   1.339   1.564
  141WAT      O  434   1.652   0.895   1.339
  141WAT     H1  435   1.700   0.945   1.404
  141WAT     H2  436   1.697   0.811   1.335
  142WAT      O  437   1.463   1.323   2.072
  142WAT     H1  438   1.423   1.237   2.058
  142WAT     H2  439   1.557   1.306   2.065
  143WAT      O  440   1.921   1.042   1.850
  143WAT     H1  441   1.926   1.002   1.937
  143WAT     H2  442   1.907   0.968   1.790
  144WAT      O  443   1.482   0.496   1.901
  144WAT     H1  444   1.449   0.550   1.828
  144WAT     H2  445   1.564   0.459   1.869
  145WAT      O  446   1.348   0.093   1.667
  145WAT     H1  447   1.306   0.164   1.716
  145WAT     H2  448   1.322   0.108   1.576
  146WAT      O  449   1.823   1.221   2.304
  146WAT     H1  450   1.891   1.154   2.309
  146WAT     H2  451   1.817   1.256   2.393
  147WAT      O  452   1.518   1.449   1.833
  147WAT     H1  453   1.476   1.414   1.912
  147WAT     H2  454   1.446   1.466   1.773
  148WAT      O  455   1.664   1.259   1.669
  148WAT     H1  456   1.727   1.310   1.618
  148WAT     H2  457   1.610   1.324   1.714
  149WAT      O  458   1.880   1.335   1.533
  149WAT     H1  459   1.935   1.331   1.454
  149WAT     H2  460   1.943   1.334   1.605
  150WAT      O  461   1.770   1.017   1.548
  150WAT     H1  462   1.759   1.096   1.602
  150WAT     H2  463   1.795   0.949   1.611
  151WAT      O  464   2.362   0.693   0.457
  151WAT     H1  465   2.286   0.658   0.502
  151WAT     H2  466   2.437   0.652   0.500
  152WAT      O  467   1.780   0.719   0.381
  152WAT     H1  468   1.716   0.677   0.438
  152WAT     H2  469   1.860   0.723   0.433
  153WAT      O  470   1.698   1.190   0.397
  153WAT     H1  471   1.785   1.153   0.386
  153WAT     H2  472   1.708   1.283   0.375
  154WAT      O  473   1.583   0.335   0.455
  154WAT     H1  474   1.578   0.291   0.540
  154WAT     H2  475   1.514   0.294   0.403
  155WAT      O  476   2.350   0.929   0.326
  155WAT     H1  477   2.332   0.856   0.385
  155WAT     H2  478   2.445   0.934   0.322
  156WAT      O  479   1.917   0.386   0.562
  156WAT     H1  480   1.991   0.447   0.556
  156WAT     H2  481   1.877   0.387   0.475
  157WAT      O  482   1.975   0.816   0.555
  157WAT     H1  483   1.932   0.860   0.628
  157WAT     H2  484   2.018   0.887   0.507
  158WAT      O  485   1.885   1.024   0.721
  158WAT     H1  486   1.945   1.098   0.726
  158WAT     H2  487   1.799   1.063   0.707
  159WAT      O  488   2.055   1.009   0.378
  159WAT     H1  489   1.993   0.992   0.307
  159WAT     H2  490   2.141   0.989   0.340
  160WAT      O  491   1.980   0.216   0.800
  160WAT     H1  492   1.961   0.221   0.706
  160WAT     H2  493   1.990   0.308   0.827
  161WAT      O  494   1.870   0.947   0.980
  161WAT     H1  495   1.782   0.967   1.011
  161WAT     H2  496   1.865   0.957   0.885
  162WAT      O  497   1.784   0.611   0.810
  162WAT     H1  498   1.720   0.682   0.814
  162WAT     H2  499   1.747   0.550   0.745
  163WAT      O  500   2.033   1.131   1.124
  163WAT     H1  501   1.993   1.199   1.069
  163WAT     H2  502   1.991   1.050   1.096
  164WAT      O  503   1.382   0.805   0.531
  164WAT     H1  504   1.403   0.849   0.449
  164WAT     H2  505   1.446   0.734   0.538
  165WAT      O  506   1.433   0.990   0.741
  165WAT     H1  507   1.370   0.931   0.700
  165WAT     H2  508   1.496   0.933   0.784
  166WAT      O  509   2.254   0.442   1.079
  166WAT     H1  510   2.197   0.379   1.124
  166WAT     H2  511   2.328   0.453   1.138
  167WAT      O  512   2.494   0.512   0.615
  167WAT     H1  513   2.435   0.457   0.666
  167WAT     H2  514   2.515   0.459   0.538
  168WAT      O  515   1.566   0.777   0.894
  168WAT     H1  516   1.489   0.742   0.939
  168WAT     H2  517   1.604   0.840   0.956
  169WAT      O  518   2.122   0.604   0.582
  169WAT     H1  519   2.151   0.627   0.670
  169WAT     H2  520   2.068   0.678   0.555
  170WAT      O  521   2.028   0.504   0.855
  170WAT     H1  522   1.945   0.546   0.833
  170WAT     H2  523   2.077   0.571   0.903
  171WAT      O  524   2.461   0.791   0.989
  171WAT     H1  525   2.539   0.768   0.938
  171WAT     H2  526   2.482   0.764   1.079
  172WAT      O  527   1.797   0.955   0.239
  172WAT     H1  528   1.743   0.945   0.161
  172WAT     H2  529   1.775   0.878   0.293
  173WAT      O  530   1.499   0.513   0.787
  173WAT     H1  531   1.487   0.521   0.881
  173WAT     H2  532   1.412   0.491   0.753
  174WAT      O  533   1.825   0.549   1.074
  174WAT     H1  534   1.822   0.536   0.979
  174WAT     H2  535   1.885   0.623   1.086
  175WAT      O  536   2.327   1.039   0.966
  175WAT     H1  537   2.407   0.988   0.954
  175WAT     H2  538   2.313   1.038   1.061
  176WAT      O  539   2.330   1.276   0.813
  176WAT     H1  540   2.315   1.349   0.873
  176WAT     H2  541   2.328   1.198   0.868
  177WAT      O  542   2.272   1.026   1.249
  177WAT     H1  543   2.271   0.937   1.282
  177WAT     H2  544   2.180   1.053   1.251
  178WAT      O  545   2.310   0.415   0.803
  178WAT     H1  546   2.313   0.409   0.899
  178WAT     H2  547   2.217   0.428   0.783
  179WAT      O  548   1.779   1.461   0.491
  179WAT     H1  549   1.860   1.409   0.495
  179WAT     H2  550   1.803   1.539   0.440
  180WAT      O  551   1.402   0.536   1.040
  180WAT     H1  552   1.455   0.492   1.106
  180WAT     H2  553   1.370   0.615   1.084
  181WAT      O  554   2.038   0.750   1.105
  181WAT     H1  555   1.958   0.800   1.088
  181WAT     H2  556   2.098   0.775   1.035
  182WAT      O  557   1.606   0.434   1.190
  182WAT     H1  558   1.646   0.397   1.268
  182WAT     H2  559   1.680   0.463   1.136
  183WAT      O  560   1.927   0.095   1.056
  183WAT     H1  561   1.834   0.109   1.074
  183WAT     H2  562   1.942   0.134   0.970
  184WAT      O  563   2.207   0.761   0.876
  184WAT     H1  564   2.287   0.761   0.929
  184WAT     H2  565   2.219   0.835   0.816
  185WAT      O  566   2.644   0.626   0.827
  185WAT     H1  567   2.610   0.561   0.888
  185WAT     H2  568   2.582   0.625   0.754
  186WAT      O  569   1.888   1.313   0.980
  186WAT     H1  570   1.804   1.331   0.939
  186WAT     H2  571   1.945   1.286   0.908
  187WAT      O  572   2.261   1.457   1.012
  187WAT     H1  573   2.317   1.534   1.016
  187WAT     H2  574   2.179   1.488   0.974
  188WAT      O  575   1.429   1.034   0.340
  188WAT     H1  576   1.514   1.077   0.339
  188WAT     H2  577   1.378   1.079   0.273
  189WAT      O  578   1.353   1.352   0.332
  189WAT     H1  579   1.357   1.330   0.425
  189WAT     H2  580   1.401   1.435   0.325
  190WAT      O  581   1.558   0.602   0.544
  190WAT     H1  582   1.537   0.575   0.634
  190WAT     H2  583   1.555   0.521   0.494
  191WAT      O  584   1.674   0.160   1.094
  191WAT     H1  585   1.616   0.104   1.042
  191WAT     H2  586   1.628   0.244   1.098
  192WAT      O  587   1.629   1.012   1.101
  192WAT     H1  588   1.636   0.979   1.191
  192WAT     H2  589   1.597   1.102   1.112
  193WAT      O  590   2.046   1.270   0.780
  193WAT     H1  591   2.025   1.274   0.687
  193WAT     H2  592   2.142   1.264   0.782
  194WAT      O  593   1.671   1.378   0.732
  194WAT     H1  594   1.704   1.416   0.650
  194WAT     H2  595   1.664   1.284   0.713
  195WAT      O  596   1.657   1.131   0.655
  195WAT     H1  597   1.570   1.096   0.675
  195WAT     H2  598   1.654   1.151   0.562
  196WAT      O  599   1.989   1.264   0.495
  196WAT     H1  600   2.007   1.172   0.480
  196WAT     H2  601   2.026   1.309   0.419
  197WAT      O  602   2.369   1.196   0.545
  197WAT     H1  603   2.437   1.129   0.549
  197WAT     H2  604   2.362   1.228   0.635
  198WAT      O  605   2.366   1.530   1.299
  198WAT     H1  606   2.342   1.527   1.207
  198WAT     H2  607   2.446   1.583   1.301
  199WAT      O  608   0.696   2.363   1.949
  199WAT     H1  609   0.726   2.323   1.867
  199WAT     H2  610   0.611   2.401   1.927
  200WAT      O  611   0.517   2.365   2.186
  200WAT     H1  612   0.460   2.290   2.172
  200WAT     H2  613   0.582   2.360   2.115
  201WAT      O  614   0.753   2.585   2.248
  201WAT     H1  615   0.658   2.571   2.242
  201WAT     H2  616   0.771   2.591   2.341
  202WAT      O  617   0.415   2.129   2.057
  202WAT     H1  618   0.487   2.067   2.047
  202WAT     H2  619   0.394   2.157   1.968
  203WAT      O  620   0.890   1.840   1.839
  203WAT     H1  621   0.951   1.777   1.878
  203WAT     H2  622   0.916   1.925   1.874
  204WAT      O  623   0.579   2.687   1.706
  204WAT     H1  624   0.545   2.774   1.687
  204WAT     H2  625   0.633   2.699   1.784
  205WAT      O  626   0.932   2.007   2.210
  205WAT     H1  627   0.845   2.035   2.239
  205WAT     H2  628   0.938   2.037   2.119
  206WAT      O  629   1.208   1.972   2.182
  206WAT     H1  630   1.126   1.971   2.230
  206WAT     H2  631   1.224   2.064   2.163
  207WAT      O  632   0.312   1.523   1.951
  207WAT     H1  633   0.328   1.430   1.938
  207WAT     H2  634   0.245   1.526   2.020
  208WAT      O  635   0.454   2.466   1.822
  208WAT     H1  636   0.361   2.455   1.802
  208WAT     H2  637   0.478   2.547   1.776
  209WAT      O  638   0.560   1.879   1.444
  209WAT     H1  639   0.502   1.948   1.476
  209WAT     H2  640   0.643   1.922   1.427
  210WAT      O  641   0.938   2.440   1.833
  210WAT     H1  642   0.875   2.512   1.839
  210WAT     H2  643   0.966   2.425   1.923
  211WAT      O  644   0.760   2.378   1.520
  211WAT     H1  645   0.822   2.309   1.497
  211WAT     H2  646   0.815   2.454   1.539
  212WAT      O  647   0.334   1.505   1.673
  212WAT     H1  648   0.323   1.522   1.767
  212WAT     H2  649   0.364   1.414   1.669
  213WAT      O  650   0.140   1.588   2.164
  213WAT     H1  651   0.193   1.667   2.162
  213WAT     H2  652   0.051   1.619   2.180
  214WAT      O  653   0.775   2.167   1.721
  214WAT     H1  654   0.734   2.238   1.670
  214WAT     H2  655   0.782   2.095   1.659
  215WAT      O  656   0.539   2.058   1.802
  215WAT     H1  657   0.624   2.102   1.798
  215WAT     H2  658   0.561   1.967   1.824
  216WAT      O  659   0.251   1.866   2.148
  216WAT     H1  660   0.294   1.846   2.065
  216WAT     H2  661   0.245   1.962   2.149
  217WAT      O  662   0.413   2.096   1.565
  217WAT     H1  663   0.471   2.092   1.640
  217WAT     H2  664   0.334   2.051   1.593
  218WAT      O  665   1.132   2.491   2.312
  218WAT     H1  666   1.218   2.497   2.272
  218WAT     H2  667   1.082   2.434   2.254
  219WAT      O  668   0.580   1.614   1.540
  219WAT     H1  669   0.498   1.581   1.577
  219WAT     H2  670   0.556   1.696   1.498
  220WAT      O  671   0.794   2.030   1.437
  220WAT     H1  672   0.859   2.094   1.408
  220WAT     H2  673   0.831   1.945   1.411
  221WAT      O  674   0.971   2.246   1.421
  221WAT     H1  675   0.973   2.304   1.345
  221WAT     H2  676   1.049   2.271   1.472
  222WAT      O  677   0.704   2.677   1.948
  222WAT     H1  678   0.733   2.742   2.012
  222WAT     H2  679   0.713   2.593   1.994
  223WAT      O  680   0.176   2.300   1.748
  223WAT     H1  681   0.111   2.253   1.801
  223WAT     H2  682   0.249   2.238   1.740
  224WAT      O  683   0.941   2.595   1.483
  224WAT     H1  684   0.931   2.678   1.436
  224WAT     H2  685   1.034   2.589   1.503
  225WAT      O  686   1.056   1.912   1.601
  225WAT     H1  687   1.038   1.896   1.508
  225WAT     H2  688   0.978   1.881   1.647
  226WAT      O  689   0.217   2.016   1.770
  226WAT     H1  690   0.131   2.000   1.808
  226WAT     H2  691   0.268   1.938   1.791
  227WAT      O  692   0.642   1.711   1.796
  227WAT     H1  693   0.621   1.676   1.709
  227WAT     H2  694   0.724   1.758   1.783
  228WAT      O  695   0.948   2.416   2.107
  228WAT     H1  696   0.915   2.476   2.173
  228WAT     H2  697   0.871   2.369   2.075
  229WAT      O  698   0.287   2.613   1.324
  229WAT     H1  699   0.221   2.556   1.365
  229WAT     H2  700   0.369   2.589   1.367
  230WAT      O  701   0.541   2.531   1.487
  230WAT     H1  702   0.544   2.597   1.557
  230WAT     H2  703   0.628   2.491   1.489
  231WAT      O  704   0.132   2.421   1.459
  231WAT     H1  705   0.110   2.406   1.551
  231WAT     H2  706   0.214   2.374   1.447
  232WAT      O  707   0.375   2.327   1.429
  232WAT     H1  708   0.443   2.386   1.461
  232WAT     H2  709   0.401   2.241   1.462
  233WAT      O  710   0.848   1.547   1.573
  233WAT     H1  711   0.856   1.453   1.589
  233WAT     H2  712   0.754   1.563   1.570
  234WAT      O  713   0.273   1.752   1.566
  234WAT     H1  714   0.184   1.780   1.586
  234WAT     H2  715   0.279   1.663   1.602
  235WAT      O  716   1.233   2.589   1.544
  235WAT     H1  717   1.298   2.632   1.600
  235WAT     H2  718   1.199   2.517   1.597
  236WAT      O  719   1.368   2.501   2.143
  236WAT     H1  720   1.379   2.491   2.049
  236WAT     H2  721   1.455   2.523   2.175
  237WAT      O  722   1.270   2.455   1.303
  237WAT     H1  723   1.185   2.450   1.260
  237WAT     H2  724   1.254   2.508   1.381
  238WAT      O  725   0.912   1.760   1.422
  238WAT     H1  726   0.924   1.718   1.337
  238WAT     H2  727   0.886   1.690   1.481
  239WAT      O  728   1.102   2.362   1.636
  239WAT     H1  729   1.129   2.279   1.674
  239WAT     H2  730   1.034   2.395   1.694
  240WAT      O  731   0.931   2.095   1.941
  240WAT     H1  732   0.878   2.123   1.866
  240WAT     H2  733   1.014   2.141   1.930
  241WAT      O  734   1.170   2.114   1.744
  241WAT     H1  735   1.228   2.070   1.807
  241WAT     H2  736   1.137   2.044   1.689
  242WAT      O  737   1.325   1.959   1.903
  242WAT     H1  738   1.295   1.947   1.993
  242WAT     H2  739   1.398   1.897   1.894
  243WAT      O  740   1.061   1.705   2.192
  243WAT     H1  741   1.111   1.710   2.110
  243WAT     H2  742   1.029   1.794   2.206
  244WAT      O  743   1.076   1.653   1.903
  244WAT     H1  744   1.070   1.557   1.904
  244WAT     H2  745   1.134   1.672   1.829
  245WAT      O  746   0.409   1.777   1.894
  245WAT     H1  747   0.381   1.696   1.937
  245WAT     H2  748   0.489   1.752   1.847
  246WAT      O  749   0.683   1.585   2.015
  246WAT     H1  750   0.773   1.615   2.029
  246WAT     H2  751   0.663   1.611   1.926
  247WAT      O  752   1.123   1.574   1.522
  247WAT     H1  753   1.120   1.627   1.442
  247WAT     H2  754   1.032   1.573   1.553
  248WAT      O  755   0.652   2.385   0.417
  248WAT     H1  756   0.567   2.392   0.460
  248WAT     H2  757   0.688   2.303   0.450
  249WAT      O  758   0.646   2.630   0.293
  249WAT     H1  759   0.722   2.665   0.339
  249WAT     H2  760   0.637   2.541   0.325
  250WAT      O  761   0.386   2.007   0.334
  250WAT     H1  762   0.472   1.977   0.363
  250WAT     H2  763   0.402   2.049   0.250
  251WAT      O  764   1.324   2.121   0.775
  251WAT     H1  765   1.261   2.186   0.746
  251WAT     H2  766   1.309   2.112   0.869
  252WAT      O  767   1.050   1.956   0.558
  252WAT     H1  768   0.972   1.930   0.607
  252WAT     H2  769   1.042   2.051   0.548
  253WAT      O  770   1.349   1.950   0.566
  253WAT     H1  771   1.268   1.973   0.521
  253WAT     H2  772   1.351   2.008   0.643
  254WAT      O  773   0.872   2.540   0.559
  254WAT     H1  774   0.958   2.523   0.522
  254WAT     H2  775   0.813   2.480   0.514
  255WAT      O  776   1.113   2.460   0.461
  255WAT     H1  777   1.088   2.471   0.370
  255WAT     H2  778   1.195   2.509   0.470
  256WAT      O  779   0.905   2.189   0.709
  256WAT     H1  780   0.854   2.248   0.765
  256WAT     H2  781   0.848   2.174   0.633
  257WAT      O  782   1.221   2.185   1.031
  257WAT     H1  783   1.229   2.280   1.034
  257WAT     H2  784   1.128   2.169   1.016
  258WAT      O  785   0.558   1.888   0.797
  258WAT     H1  786   0.533   1.914   0.886
  258WAT     H2  787   0.500   1.815   0.776
  259WAT      O  788   0.996   2.061   0.932
  259WAT     H1  789   0.918   2.035   0.981
  259WAT     H2  790   0.962   2.087   0.847
  260WAT      O  791   0.707   2.236   1.139
  260WAT     H1  792   0.620   2.199   1.122
  260WAT     H2  793   0.767   2.164   1.121
  261WAT      O  794   0.270   1.827   0.605
  261WAT     H1  795   0.228   1.911   0.590
  261WAT     H2  796   0.291   1.795   0.517
  262WAT      O  797   0.369   2.212   1.107
  262WAT     H1  798   0.337   2.280   1.047
  262WAT     H2  799   0.357   2.250   1.194
  263WAT      O  800   0.374   1.762   1.298
  263WAT     H1  801   0.309   1.757   1.369
  263WAT     H2  802   0.451   1.802   1.339
  264WAT      O  803   0.733   2.161   0.504
  264WAT     H1  804   0.682   2.161   0.585
  264WAT     H2  805   0.725   2.071   0.472
  265WAT      O  806   0.219   2.088   0.533
  265WAT     H1  807   0.213   2.184   0.530
  265WAT     H2  808   0.278   2.065   0.463
  266WAT      O  809   0.663   1.868   0.433
  266WAT     H1  810   0.716   1.831   0.504
  266WAT     H2  811   0.593   1.803   0.420
  267WAT      O  812   1.042   1.464   1.023
  267WAT     H1  813   1.053   1.398   0.955
  267WAT     H2  814   1.082   1.543   0.987
  268WAT      O  815   0.440   2.374   0.618
  268WAT     H1  816   0.484   2.300   0.661
  268WAT     H2  817   0.399   2.422   0.690
  269WAT      O  818   1.024   2.457   0.204
  269WAT     H1  819   1.042   2.365   0.184
  269WAT     H2  820   0.980   2.490   0.125
  270WAT      O  821   0.715   2.476   1.238
  270WAT     H1  822   0.726   2.381   1.231
  270WAT     H2  823   0.652   2.487   1.309
  271WAT      O  824   1.300   2.699   0.866
  271WAT     H1  825   1.238   2.733   0.801
  271WAT     H2  826   1.385   2.735   0.839
  272WAT      O  827   0.750   2.504   0.069
  272WAT     H1  828   0.701   2.563   0.126
  272WAT     H2  829   0.741   2.417   0.109
  273WAT      O  830   0.833   1.858   0.680
  273WAT     H1  831   0.868   1.774   0.711
  273WAT     H2  832   0.762   1.878   0.741
  274WAT      O  833   0.606   2.158   0.733
  274WAT     H1  834   0.584   2.202   0.815
  274WAT     H2  835   0.587   2.066   0.750
  275WAT      O  836   1.196   1.853   0.815
  275WAT     H1  837   1.142   1.917   0.861
  275WAT     H2  838   1.213   1.892   0.730
  276WAT      O  839   0.330   2.662   1.037
  276WAT     H1  840   0.331   2.625   1.125
  276WAT     H2  841   0.340   2.756   1.050
  277WAT      O  842   0.839   2.586   1.031
  277WAT     H1  843   0.857   2.680   1.027
  277WAT     H2  844   0.799   2.573   1.117
  278WAT      O  845   1.004   2.374   1.176
  278WAT     H1  846   1.064   2.369   1.101
  278WAT     H2  847   0.927   2.419   1.141
  279WAT      O  848   0.446   1.650   0.680
  279WAT     H1  849   0.389   1.724   0.662
  279WAT     H2  850   0.391   1.590   0.731
  280WAT      O  851   0.330   2.430   0.876
  280WAT     H1  852   0.417   2.397   0.900
  280WAT     H2  853   0.321   2.512   0.924
  281WAT      O  854   0.582   2.356   0.929
  281WAT     H1  855   0.634   2.367   1.008
  281WAT     H2  856   0.643   2.371   0.857
  282WAT      O  857   0.802   2.446   0.797
  282WAT     H1  858   0.827   2.505   0.727
  282WAT     H2  859   0.819   2.495   0.878
  283WAT      O  860   0.473   1.970   1.038
  283WAT     H1  861   0.415   1.901   1.071
  283WAT     H2  862   0.420   2.050   1.045
  284WAT      O  863   0.783   1.954   1.079
  284WAT     H1  864   0.708   1.900   1.052
  284WAT     H2  865   0.839   1.894   1.128
  285WAT      O  866   1.181   2.454   0.951
  285WAT     H1  867   1.191   2.414   0.865
  285WAT     H2  868   1.228   2.537   0.944
  286WAT      O  869   1.008   1.808   1.133
  286WAT     H1  870   1.094   1.785   1.167
  286WAT     H2  871   1.013   1.790   1.040
  287WAT      O  872   1.115   2.195   0.424
  287WAT     H1  873   1.112   2.288   0.444
  287WAT     H2  874   1.196   2.185   0.374
  288WAT      O  875   1.166   2.314   0.694
  288WAT     H1  876   1.079   2.277   0.709
  288WAT     H2  877   1.158   2.363   0.612
  289WAT      O  878   1.173   1.586   0.802
  289WAT     H1  879   1.191   1.676   0.774
  289WAT     H2  880   1.186   1.534   0.723
  290WAT      O  881   0.412   1.634   1.053
  290WAT     H1  882   0.391   1.683   1.132
  290WAT     H2  883   0.506   1.647   1.041
  291WAT      O  884   0.688   1.673   1.034
  291WAT     H1  885   0.754   1.667   0.965
  291WAT     H2  886   0.733   1.642   1.113
  292WAT      O  887   0.845   1.410   0.741
  292WAT     H1  888   0.825   1.433   0.650
  292WAT     H2  889   0.765   1.368   0.772
  293WAT      O  890   0.893   1.653   0.844
  293WAT     H1  891   0.859   1.566   0.822
  293WAT     H2  892   0.986   1.648   0.824
  294WAT      O  893   0.534   1.628   0.423
  294WAT     H1  894   0.520   1.636   0.518
  294WAT     H2  895   0.525   1.535   0.405
  295WAT      O  896   1.088   1.711   0.424
  295WAT     H1  897   1.179   1.695   0.402
  295WAT     H2  898   1.087   1.800   0.459
  296WAT      O  899   0.885   1.557   0.238
  296WAT     H1  900   0.963   1.602   0.273
  296WAT     H2  901   0.817   1.624   0.239
  297WAT      O  902   0.854   1.560   1.219
  297WAT     H1  903   0.829   1.477   1.261
  297WAT     H2  904   0.923   1.536   1.157
  298WAT      O  905   0.707   0.394   2.016
  298WAT     H1  906   0.743   0.310   1.987
  298WAT     H2  907   0.660   0.428   1.940
  299WAT      O  908   0.691   0.644   2.145
  299WAT     H1  909   0.783   0.619   2.159
  299WAT     H2  910   0.658   0.578   2.085
  300WAT      O  911   1.087   1.093   2.041
  300WAT     H1  912   1.047   1.041   2.110
  300WAT     H2  913   1.126   1.168   2.086
  301WAT      O  914   0.601   1.311   2.076
  301WAT     H1  915   0.515   1.314   2.033
  301WAT     H2  916   0.629   1.403   2.080
  302WAT      O  917   0.430   0.733   2.073
  302WAT     H1  918   0.499   0.709   2.134
  302WAT     H2  919   0.450   0.683   1.994
  303WAT      O  920   0.741   0.838   1.755
  303WAT     H1  921   0.653   0.842   1.717
  303WAT     H2  922   0.761   0.928   1.779
  304WAT      O  923   0.813   1.247   2.239
  304WAT     H1  924   0.844   1.157   2.238
  304WAT     H2  925   0.736   1.247   2.181
  305WAT      O  926   1.069   1.001   1.766
  305WAT     H1  927   1.061   0.906   1.764
  305WAT     H2  928   1.070   1.023   1.860
  306WAT      O  929   0.579   0.600   1.869
  306WAT     H1  930   0.571   0.581   1.775
  306WAT     H2  931   0.651   0.663   1.874
  307WAT      O  932   1.006   0.740   1.769
  307WAT     H1  933   0.912   0.758   1.777
  307WAT     H2  934   1.021   0.663   1.824
  308WAT      O  935   0.739   0.734   1.458
  308WAT     H1  936   0.808   0.673   1.484
  308WAT     H2  937   0.778   0.821   1.468
  309WAT      O  938   0.738   1.063   1.931
  309WAT     H1  939   0.818   1.112   1.950
  309WAT     H2  940   0.670   1.109   1.979
  310WAT      O  941   0.769   1.270   1.636
  310WAT     H1  942   0.812   1.260   1.720
  310WAT     H2  943   0.782   1.186   1.592
  311WAT      O  944   0.877   1.321   1.878
  311WAT     H1  945   0.963   1.342   1.914
  311WAT     H2  946   0.816   1.374   1.929
  312WAT      O  947   0.790   0.251   1.781
  312WAT     H1  948   0.707   0.211   1.754
  312WAT     H2  949   0.835   0.271   1.699
  313WAT      O  950   0.379   0.197   1.682
  313WAT     H1  951   0.313   0.265   1.672
  313WAT     H2  952   0.350   0.127   1.624
  314WAT      O  953   1.046   0.720   2.163
  314WAT     H1  954   1.135   0.755   2.150
  314WAT     H2  955   1.033   0.662   2.088
  315WAT      O  956   0.975   0.345   1.596
  315WAT     H1  957   0.959   0.435   1.571
  315WAT     H2  958   1.012   0.304   1.517
  316WAT      O  959   0.482   0.905   1.673
  316WAT     H1  960   0.487   0.952   1.590
  316WAT     H2  961   0.388   0.900   1.692
  317WAT      O  962   0.961   0.576   1.475
  317WAT     H1  963   0.963   0.612   1.387
  317WAT     H2  964   1.027   0.627   1.523
  318WAT      O  965   1.224   1.209   1.696
  318WAT     H1  966   1.160   1.144   1.727
  318WAT     H2  967   1.210   1.213   1.602
  319WAT      O  968   0.909   0.970   2.209
  319WAT     H1  969   0.932   0.887   2.167
  319WAT     H2  970   0.837   0.949   2.268
  320WAT      O  971   0.432   1.009   1.992
  320WAT     H1  972   0.502   0.999   1.928
  320WAT     H2  973   0.444   0.934   2.051
  321WAT      O  974   0.238   0.754   1.728
  321WAT     H1  975   0.300   0.729   1.797
  321WAT     H2  976   0.152   0.730   1.763
  322WAT      O  977   1.007   0.951   1.507
  322WAT     H1  978   1.021   0.984   1.596
  322WAT     H2  979   1.080   0.891   1.491
  323WAT      O  980   0.441   1.055   1.445
  323WAT     H1  981   0.472   0.990   1.382
  323WAT     H2  982   0.375   1.105   1.396
  324WAT      O  983   0.368   1.277   1.897
  324WAT     H1  984   0.420   1.254   1.820
  324WAT     H2  985   0.350   1.193   1.940
  325WAT      O  986   0.958   0.515   1.921
  325WAT     H1  987   0.865   0.516   1.943
  325WAT     H2  988   0.987   0.427   1.946
  326WAT      O  989   1.198   1.310   2.164
  326WAT     H1  990   1.146   1.358   2.228
  326WAT     H2  991   1.286   1.347   2.170
  327WAT      O  992   0.223   1.239   1.329
  327WAT     H1  993   0.253   1.325   1.300
  327WAT     H2  994   0.137   1.255   1.368
  328WAT      O  995   0.238   0.852   1.151
  328WAT     H1  996   0.212   0.816   1.236
  328WAT     H2  997   0.204   0.790   1.087
  329WAT      O  998   0.516   0.620   1.598
  329WAT     H1  999   0.469   0.704   1.591
  329WAT     H2 1000   0.597   0.634   1.549
  330WAT      O 1001   0.226   0.707   1.397
  330WAT     H1 1002   0.195   0.716   1.487
  330WAT     H2 1003   0.302   0.650   1.404
  331WAT      O 1004   0.444   0.552   1.334
  331WAT     H1 1005   0.524   0.539   1.284
  331WAT     H2 1006   0.469   0.537   1.425
  332WAT      O 1007   0.493   1.246   1.641
  332WAT     H1 1008   0.587   1.261   1.642
  332WAT     H2 1009   0.477   1.193   1.563
  333WAT      O 1010   1.236   0.752   1.482
  333WAT     H1 1011   1.305   0.817   1.495
  333WAT     H2 1012   1.262   0.677   1.535
  334WAT      O 1013   1.255   0.861   2.061
  334WAT     H1 1014   1.201   0.930   2.023
  334WAT     H2 1015   1.343   0.900   2.066
  335WAT      O 1016   1.294   0.711   1.236
  335WAT     H1 1017   1.276   0.784   1.177
  335WAT     H2 1018   1.267   0.742   1.322
  336WAT      O 1019   1.282   0.568   1.685
  336WAT     H1 1020   1.271   0.473   1.688
  336WAT     H2 1021   1.227   0.601   1.756
  337WAT      O 1022   1.071   0.303   2.003
  337WAT     H1 1023   1.047   0.249   2.078
  337WAT     H2 1024   1.143   0.357   2.034
  338WAT      O 1025   1.199   0.284   1.763
  338WAT     H1 1026   1.158   0.265   1.848
  338WAT     H2 1027   1.126   0.283   1.701
  339WAT      O 1028   1.120   1.380   1.932
  339WAT     H1 1029   1.158   1.323   1.865
  339WAT     H2 1030   1.159   1.350   2.014
  340WAT      O 1031   1.031   1.444   2.295
  340WAT     H1 1032   1.024   1.537   2.272
  340WAT     H2 1033   0.942   1.410   2.282
  341WAT      O 1034   1.316   1.473   1.661
  341WAT     H1 1035   1.282   1.384   1.648
  341WAT     H2 1036   1.257   1.529   1.611
  342WAT      O 1037   0.508   0.823   0.274
  342WAT     H1 1038   0.514   0.776   0.357
  342WAT     H2 1039   0.420   0.859   0.273
  343WAT      O 1040   0.879   1.126   0.314
  343WAT     H1 1041   0.840   1.087   0.236
  343WAT     H2 1042   0.962   1.163   0.284
  344WAT      O 1043   0.553   1.084   0.328
  344WAT     H1 1044   0.533   1.013   0.268
  344WAT     H2 1045   0.627   1.051   0.380
  345WAT      O 1046   1.133   1.201   0.505
  345WAT     H1 1047   1.103   1.286   0.535
  345WAT     H2 1048   1.163   1.216   0.415
  346WAT      O 1049   0.835   1.409   0.472
  346WAT     H1 1050   0.785   1.331   0.449
  346WAT     H2 1051   0.849   1.454   0.389
  347WAT      O 1052   0.896   0.845   0.644
  347WAT     H1 1053   0.885   0.813   0.555
  347WAT     H2 1054   0.981   0.890   0.643
  348WAT      O 1055   1.149   0.697   0.581
  348WAT     H1 1056   1.103   0.703   0.498
  348WAT     H2 1057   1.222   0.757   0.572
  349WAT      O 1058   0.950   0.428   0.747
  349WAT     H1 1059   0.887   0.409   0.817
  349WAT     H2 1060   0.903   0.489   0.689
  350WAT      O 1061   1.049   1.250   0.832
  350WAT     H1 1062   1.006   1.322   0.785
  350WAT     H2 1063   0.979   1.188   0.850
  351WAT      O 1064   1.304   0.866   1.028
  351WAT     H1 1065   1.347   0.937   0.979
  351WAT     H2 1066   1.231   0.840   0.972
  352WAT      O 1067   0.622   1.320   0.877
  352WAT     H1 1068   0.619   1.243   0.933
  352WAT     H2 1069   0.531   1.350   0.874
  353WAT      O 1070   0.970   0.325   1.230
  353WAT     H1 1071   0.973   0.268   1.153
  353WAT     H2 1072   1.021   0.401   1.206
  354WAT      O 1073   0.703   0.477   1.247
  354WAT     H1 1074   0.761   0.409   1.281
  354WAT     H2 1075   0.760   0.551   1.229
  355WAT      O 1076   0.102   0.512   1.181
  355WAT     H1 1077   0.151   0.527   1.262
  355WAT     H2 1078   0.138   0.575   1.119
  356WAT      O 1079   0.758   0.487   0.496
  356WAT     H1 1080   0.721   0.412   0.450
  356WAT     H2 1081   0.683   0.530   0.537
  357WAT      O 1082   0.441   0.761   0.540
  357WAT     H1 1083   0.453   0.686   0.598
  357WAT     H2 1084   0.399   0.827   0.595
  358WAT      O 1085   0.896   0.713   0.402
  358WAT     H1 1086   0.884   0.724   0.308
  358WAT     H2 1087   0.855   0.629   0.421
  359WAT      O 1088   0.587   0.860   0.859
  359WAT     H1 1089   0.676   0.825   0.860
  359WAT     H2 1090   0.534   0.787   0.827
  360WAT      O 1091   0.604   1.078   1.007
  360WAT     H1 1092   0.584   0.995   0.965
  360WAT     H2 1093   0.529   1.095   1.063
  361WAT      O 1094   1.110   0.780   0.857
  361WAT     H1 1095   1.096   0.853   0.798
  361WAT     H2 1096   1.126   0.705   0.799
  362WAT      O 1097   0.760   0.718   0.163
  362WAT     H1 1098   0.736   0.696   0.073
  362WAT     H2 1099   0.686   0.768   0.197
  363WAT      O 1100   0.551   1.224   0.621
  363WAT     H1 1101   0.539   1.262   0.708
  363WAT     H2 1102   0.635   1.178   0.627
  364WAT      O 1103   0.803   1.105   0.614
  364WAT     H1 1104   0.830   1.013   0.620
  364WAT     H2 1105   0.845   1.137   0.534
  365WAT      O 1106   0.850   1.097   0.896
  365WAT     H1 1107   0.767   1.085   0.942
  365WAT     H2 1108   0.826   1.091   0.803
  366WAT      O 1109   0.341   1.098   1.123
  366WAT     H1 1110   0.306   1.011   1.143
  366WAT     H2 1111   0.288   1.158   1.175
  367WAT      O 1112   0.501   0.530   0.674
  367WAT     H1 1113   0.532   0.519   0.764
  367WAT     H2 1114   0.437   0.460   0.662
  368WAT      O 1115   1.117   1.268   0.230
  368WAT     H1 1116   1.210   1.285   0.246
  368WAT     H2 1117   1.085   1.348   0.190
  369WAT      O 1118   0.571   0.880   1.268
  369WAT     H1 1119   0.497   0.855   1.212
  369WAT     H2 1120   0.604   0.797   1.301
  370WAT      O 1121   0.165   0.689   0.941
  370WAT     H1 1122   0.085   0.663   0.896
  370WAT     H2 1123   0.196   0.765   0.892
  371WAT      O 1124   0.884   0.938   1.134
  371WAT     H1 1125   0.793   0.955   1.160
  371WAT     H2 1126   0.903   1.007   1.071
  372WAT      O 1127   0.948   0.662   1.205
  372WAT     H1 1128   1.032   0.655   1.159
  372WAT     H2 1129   0.922   0.754   1.192
  373WAT      O 1130   0.338   0.867   0.760
  373WAT     H1 1131   0.413   0.907   0.805
  373WAT     H2 1132   0.277   0.939   0.746
  374WAT      O 1133   0.636   0.513   0.920
  374WAT     H1 1134   0.626   0.488   1.012
  374WAT     H2 1135   0.703   0.582   0.921
  375WAT      O 1136   0.820   0.717   0.863
  375WAT     H1 1137   0.846   0.754   0.779
  375WAT     H2 1138   0.900   0.716   0.914
  376WAT      O 1139   0.337   1.423   0.889
  376WAT     H1 1140   0.370   1.501   0.934
  376WAT     H2 1141   0.249   1.411   0.926
  377WAT      O 1142   1.125   0.995   0.692
  377WAT     H1 1143   1.162   1.059   0.752
  377WAT     H2 1144   1.124   1.039   0.607
  378WAT      O 1145   1.132   0.533   0.996
  378WAT     H1 1146   1.223   0.505   0.986
  378WAT     H2 1147   1.117   0.591   0.921
  379WAT      O 1148   1.390   0.195   0.298
  379WAT     H1 1149   1.307   0.147   0.307
  379WAT     H2 1150   1.369   0.268   0.240
  380WAT      O 1151   1.251   0.480   0.696
  380WAT     H1 1152   1.176   0.436   0.737
  380WAT     H2 1153   1.212   0.556   0.651
  381WAT      O 1154   0.297   1.164   0.698
  381WAT     H1 1155   0.303   1.253   0.734
  381WAT     H2 1156   0.365   1.161   0.631
  382WAT      O 1157   1.375   1.342   0.607
  382WAT     H1 1158   1.308   1.411   0.605
  382WAT     H2 1159   1.325   1.261   0.619
  383WAT      O 1160   1.100   1.491   0.569
  383WAT     H1 1161   1.101   1.561   0.504
  383WAT     H2 1162   1.009   1.462   0.573
  384WAT      O 1163   0.513   1.356   0.368
  384WAT     H1 1164   0.525   1.283   0.307
  384WAT     H2 1165   0.502   1.314   0.454
  385WAT      O 1166   0.302   1.479   1.260
  385WAT     H1 1167   0.335   1.498   1.172
  385WAT     H2 1168   0.341   1.547   1.315
   2.69529   2.94609   2.51772
