IMDgroup
  220
    1MOL     C1    1   1.925   2.079   1.518 -0.0087  0.4660  0.3475
    1MOL     C2    2   1.973   2.030   1.639  0.1294 -0.4982 -0.0478
    1MOL     C3    3   1.985   2.111   1.751 -0.0224 -0.1433  0.0765
    1MOL     C4    4   1.959   2.247   1.740  0.5180  0.3965 -0.5497
    1MOL     C5    5   1.910   2.292   1.619 -0.2371 -0.2203  0.7434
    1MOL     C6    6   1.886   2.212   1.508  0.3183  0.6417 -0.0851
    1MOL     C7    7   2.054   2.060   1.866 -0.0938 -0.7097 -0.4130
    1MOL     N1    8   2.115   2.027   1.958  0.0477 -0.1021 -0.1161
    1MOL     C8    9   1.847   2.272   1.378 -0.5552  0.2776  0.0229
    1MOL     O1   10   1.829   2.392   1.374  0.6395  0.8944 -0.5886
    1MOL     O2   11   1.833   2.199   1.282  0.5137  0.1153 -0.5480
    1MOL     H1   12   1.924   2.022   1.426  1.2509  0.9418  1.0040
    1MOL     H2   13   2.007   1.927   1.632  1.7250  1.5014 -0.1133
    1MOL     H3   14   1.978   2.312   1.825  0.2717  0.5048 -1.2497
    1MOL     H4   15   1.878   2.396   1.621  0.5709 -0.7756 -0.0939
    2OCB     C1   16   2.399   2.164   2.199 -0.1365 -0.4740  0.0186
    2OCB     C2   17   2.146   2.278   2.225 -0.2764  0.8409  0.2918
    2OCB     C3   18   2.304   2.099   2.275  0.5411  0.5207 -0.0140
    2OCB     C4   19   2.375   2.293   2.152  0.0173 -0.1047  0.5004
    2OCB     C5   20   2.249   2.349   2.165 -0.3449  0.1519  0.2415
    2OCB     C6   21   2.180   2.159   2.287  0.3421  0.4644  0.4336
    2OCB     O1   22   2.021   2.335   2.231 -0.5364  0.2155  0.6821
    2OCB     C7   23   2.086   2.104   2.392 -0.4240 -0.0170  0.5550
    2OCB     C8   24   1.917   2.264   2.162 -0.4547  0.0721 -0.1144
    2OCB     O2   25   1.845   2.178   2.253  0.6217  0.3431  0.9857
    2OCB     C9   26   1.881   2.046   2.259 -1.2238  0.1853 -0.2275
    2OCB    C10   27   1.996   2.003   2.324  0.3730  0.6779 -0.9167
    2OCB    C11   28   2.028   1.868   2.328 -0.4812 -0.1899 -0.4972
    2OCB    C12   29   1.800   1.952   2.198  0.5294 -0.4960  0.1549
    2OCB    C13   30   1.955   1.776   2.254  0.2441  0.1496 -0.0743
    2OCB    C14   31   1.839   1.819   2.192 -0.3741  0.5237  0.3852
    2OCB     O3   32   1.762   1.735   2.115  0.7201 -0.2018 -0.5841
    2OCB    C15   33   2.004   1.633   2.253 -0.5125 -0.2642 -0.1425
    2OCB    C16   34   2.082   1.617   2.124  0.1841 -0.1630  0.5737
    2OCB    C17   35   2.021   1.583   2.005  0.5192 -0.3452  0.3384
    2OCB    C18   36   1.817   1.705   1.985 -0.3921 -0.0949 -0.5723
    2OCB     O4   37   1.884   1.579   2.002 -0.0811  0.7580  0.8961
    2OCB     O5   38   2.446   2.341   2.045  0.1830 -0.5081 -0.1352
    2OCB    C19   39   2.531   2.094   2.176 -0.2370  0.5212  0.7048
    2OCB    C20   40   2.512   2.005   2.055  0.3159 -0.1852 -0.9308
    2OCB     O6   41   2.547   2.188   1.905 -0.2120 -0.2492  0.5600
    2OCB    C21   42   2.527   2.053   1.927 -0.0641 -0.5331  0.0311
    2OCB    C22   43   2.090   1.569   1.885  0.5981 -1.2187  0.5870
    2OCB    C23   44   2.229   1.580   1.888 -0.2386  0.1642  0.1013
    2OCB    C24   45   2.516   1.965   1.820  0.7425  0.1114  0.7796
    2OCB    C25   46   2.479   1.833   1.843 -1.0915 -0.0868  0.1234
    2OCB     O7   47   2.286   1.596   1.764  0.0016 -0.1377  0.5392
    2OCB     O8   48   2.441   1.756   1.736  0.2069  0.1572  0.3578
    2OCB    C26   49   2.301   1.732   1.718 -0.3436 -0.2770  0.2389
    2OCB    C27   50   2.493   1.868   2.073 -0.4039  0.7965  0.2358
    2OCB    C28   51   2.474   1.777   1.970 -0.5720  0.7891 -0.3265
    2OCB    C29   52   2.221   1.627   2.118 -0.8052  0.0205 -0.1560
    2OCB    C30   53   2.447   1.631   1.999  0.4760 -0.2647 -0.0248
    2OCB    C31   54   2.298   1.608   2.005  0.0358 -0.4724 -0.2772
    2OCB    C32   55   2.434   2.275   1.918  0.1914 -0.6671 -0.4052
    2OCB    C33   56   2.067   1.578   2.381  0.6635  0.0834 -0.0117
    2OCB    C34   57   2.072   1.425   2.387 -0.6095 -0.0201  0.3961
    2OCB    C35   58   2.148   1.366   2.503  0.0822  0.0965  0.8289
    2OCB     O9   59   2.253   1.414   2.543  0.5067  0.2917  0.0982
    2OCB    C36   60   2.161   2.065   2.521  0.1719 -0.2022  0.0070
    2OCB    C37   61   2.071   2.014   2.633 -0.8762  0.2866 -0.0701
    2OCB    C38   62   2.153   1.968   2.751 -0.6267 -0.1324 -0.0271
    2OCB    O10   63   2.188   2.049   2.834  0.0320 -0.6102 -0.0867
    2OCB    C39   64   2.585   2.030   2.305 -0.3031  0.1983  0.0883
    2OCB    C40   65   2.733   1.992   2.292  0.1202 -0.4082  0.3764
    2OCB    C41   66   2.802   1.931   2.412 -0.2944  0.0151 -0.0790
    2OCB    O11   67   2.921   1.910   2.399 -0.0481  0.2557 -0.5635
    2OCB    C42   68   2.527   1.567   2.114 -1.2924 -0.0861  0.1005
    2OCB    C43   69   2.527   1.414   2.128  0.2307  0.0103  0.3044
    2OCB    C44   70   2.658   1.350   2.168  0.8255  0.1516  0.2466
    2OCB    O12   71   2.733   1.308   2.083  0.2629 -0.0869 -0.5693
    2OCB    C45   72   1.829   2.358   2.083 -0.2264 -0.9907 -0.8166
    2OCB    C46   73   1.674   2.504   1.902  0.0614  0.1103  0.2498
    2OCB    C47   74   1.712   2.307   2.028  0.9378  0.2343  0.0516
    2OCB    C48   75   1.873   2.481   2.034 -0.0526  0.4764 -0.1628
    2OCB    C49   76   1.799   2.551   1.941  0.4625  0.1263 -0.7038
    2OCB    C50   77   1.628   2.382   1.948  0.1561 -0.1120  1.0034
    2OCB    C51   78   2.434   2.379   1.808 -0.3230  0.6231  0.1360
    2OCB    C52   79   2.412   2.560   1.600 -0.3785  0.5881 -0.1730
    2OCB    C53   80   2.481   2.347   1.682 -0.1645 -0.4059 -0.5010
    2OCB    C54   81   2.378   2.504   1.828  0.2697  0.0112 -0.5737
    2OCB    C55   82   2.363   2.595   1.725 -0.3654 -0.2384  0.8521
    2OCB    C56   83   2.472   2.437   1.576  0.2834 -0.3798  0.6281
    2OCB    C57   84   2.263   1.755   1.573 -0.6594  0.0570  0.0486
    2OCB    C58   85   2.175   1.797   1.303 -0.0422 -0.5663 -0.4726
    2OCB    C59   86   2.177   1.668   1.508 -0.0881 -0.3874 -0.0754
    2OCB    C60   87   2.311   1.858   1.493 -0.1430  0.0858  0.0930
    2OCB    C61   88   2.267   1.882   1.364 -0.1946  0.2608 -0.5611
    2OCB    C62   89   2.138   1.685   1.376  0.1357  0.3152  0.2667
    2OCB    C63   90   1.711   1.704   1.877 -0.1376 -0.3024  0.0330
    2OCB    C64   91   1.520   1.713   1.671  0.2636 -0.2420  0.0221
    2OCB    C65   92   1.732   1.639   1.756 -0.0459  0.3236 -0.4852
    2OCB    C66   93   1.602   1.789   1.888 -0.1520  0.5453  0.1856
    2OCB    C67   94   1.509   1.791   1.785 -0.2593 -0.0610  0.1887
    2OCB    C68   95   1.636   1.640   1.656 -0.8686 -0.0431 -0.5950
    2OCB    O13   96   2.297   2.716   1.734 -0.4218 -0.3136 -0.4086
    2OCB    O14   97   2.305   1.994   1.294  0.5436  0.4235 -0.2892
    2OCB    O15   98   2.059   1.598   1.304 -0.4911 -0.4812 -0.1824
    2OCB    O16   99   1.844   2.674   1.900  0.1812  0.5850 -0.2657
    2OCB    O17  100   1.504   2.342   1.904 -0.3249  0.3571 -0.4263
    2OCB    O18  101   1.642   1.561   1.544  0.1775 -0.0433  0.0159
    2OCB    O19  102   1.408   1.884   1.784 -0.8269  0.0557  0.4411
    2OCB    C69  103   2.412   2.073   1.328  0.1098  0.8391  0.0079
    2OCB    C70  104   2.635   2.210   1.399  0.2500 -0.3745  0.3832
    2OCB    C71  105   2.395   2.205   1.367  0.0432 -0.4770 -0.0979
    2OCB    C72  106   2.535   2.010   1.338  0.2486  0.4027 -0.3900
    2OCB    C73  107   2.654   2.077   1.364 -0.0587 -0.1139  0.4250
    2OCB    C74  108   2.510   2.269   1.408 -0.7383  0.9699 -0.7196
    2OCB    O20  109   2.502   2.401   1.447 -0.5865  0.4426 -0.5531
    2OCB    C75  110   1.976   2.710   1.906 -0.3008 -0.2204 -0.1816
    2OCB    C76  111   2.231   2.786   1.950  0.4741  0.3735  0.1669
    2OCB    C77  112   2.011   2.777   2.023  0.1106 -0.4979  0.5079
    2OCB    C78  113   2.069   2.684   1.806 -0.1529  0.2330  0.1104
    2OCB    C79  114   2.199   2.726   1.830  0.0722  0.2812  0.8687
    2OCB    C80  115   2.142   2.808   2.054  0.6171  0.2067 -0.9003
    2OCB    C81  116   1.964   1.529   1.376 -0.5196 -0.2762 -0.9466
    2OCB    C82  117   1.767   1.366   1.484 -0.0180 -0.5441  0.3992
    2OCB    C83  118   1.986   1.392   1.387 -0.0482  0.0882  0.4669
    2OCB    C84  119   1.847   1.584   1.426 -0.0334 -0.9682  0.0566
    2OCB    C85  120   1.756   1.504   1.492  0.0899 -0.3948  0.2075
    2OCB    C86  121   1.886   1.311   1.439 -0.0468 -0.1676 -0.1824
    2OCB    C87  122   1.896   1.163   1.428  0.1535 -0.0378  0.9686
    2OCB    O21  123   2.002   1.115   1.392  0.1049 -0.0573 -0.2517
    2OCB    C88  124   1.173   2.088   2.154 -0.4566 -0.2933 -0.0433
    2OCB    O22  125   1.161   2.183   2.229 -0.3374 -0.3101  0.1177
    2OCB    C89  126   2.188   2.867   2.183 -0.1484  0.3068 -0.3762
    2OCB    O23  127   2.112   2.935   2.249  0.2386  0.0388  0.5108
    2OCB    O24  128   2.095   1.277   2.566  0.1684  0.4305 -0.5312
    2OCB    O25  129   2.700   1.358   2.281 -0.1359 -0.6673 -0.2475
    2OCB    O26  130   2.747   1.910   2.518 -0.1539 -0.5509  0.0419
    2OCB    C90  131   2.784   2.004   1.367 -0.0675  0.1003  0.3303
    2OCB    O27  132   2.879   2.058   1.420 -0.1621 -0.0754 -0.1824
    2OCB    O28  133   1.092   1.998   2.161  0.4569 -0.3564 -0.2855
    2OCB    O29  134   1.805   1.089   1.460 -0.3568  0.5105  0.6151
    2OCB    O30  135   2.792   1.894   1.316  0.6782 -0.0090  0.0151
    2OCB    O31  136   2.305   2.866   2.214  0.2621  0.0481 -0.1284
    2OCB    O32  137   2.189   1.853   2.769  0.5033 -0.0280 -0.4145
    2OCB    C91  138   1.451   2.218   1.933 -0.0078 -0.2967  1.0253
    2OCB    C92  139   1.311   1.979   1.975 -0.4607 -0.2816 -0.0043
    2OCB    C93  140   1.476   2.106   1.855  0.1117  0.4447  0.9181
    2OCB    C94  141   1.357   2.206   2.034 -0.0021  0.4170 -0.6722
    2OCB    C95  142   1.282   2.091   2.053 -0.0416 -0.2492  0.6552
    2OCB    C96  143   1.405   1.988   1.874 -1.3697 -0.4291 -0.7956
    2OCB    C97  144   1.566   2.119   1.734  0.6197 -0.0714 -0.4170
    2OCB    C98  145   2.035   2.620   1.673 -0.4481  0.5361 -0.4595
    2OCB    C99  146   2.252   2.255   1.360 -0.0573 -0.3948 -0.7254
    2OCB      C  147   1.832   1.734   1.414  0.5084 -0.7499 -0.7861
    2OCB     H1  148   2.322   1.998   2.310  0.1302  0.5667 -2.2439
    2OCB     H2  149   2.217   2.432   2.102  0.2893  0.4113 -1.7358
    2OCB     H3  150   2.018   2.178   2.435  2.6719  0.8576 -3.8930
    2OCB     H4  151   1.966   2.200   2.087  0.2834 -1.2962  0.9937
    2OCB     H5  152   2.124   1.845   2.373  0.6321 -1.6931  0.1788
    2OCB     H6  153   1.703   1.972   2.152  1.5629  0.2239 -1.4437
    2OCB     H7  154   1.910   1.581   2.234 -0.3083 -1.4481 -2.6013
    2OCB     H8  155   1.892   1.782   1.961 -0.8672 -0.6762 -0.3207
    2OCB     H9  156   2.593   2.181   2.152 -0.3328  0.0059 -1.0585
    2OCB    H10  157   2.038   1.562   1.790 -0.9716 -1.0622  2.6990
    2OCB    H11  158   2.515   1.992   1.715  0.8640 -0.7799 -0.8461
    2OCB    H12  159   2.238   1.803   1.773  0.4736 -0.9764 -0.7387
    2OCB    H13  160   2.481   1.831   2.175 -0.0273 -0.6089  2.5203
    2OCB    H14  161   2.276   1.664   2.204 -0.5592  1.0712 -1.1272
    2OCB    H15  162   2.480   1.581   1.907  1.0234  0.3421 -1.2767
    2OCB    H16  163   2.339   2.220   1.908  1.0559  1.8748 -2.1959
    2OCB    H17  164   2.172   1.609   2.387 -2.2792 -0.8421 -0.5968
    2OCB    H18  165   2.027   1.625   2.471  1.0965 -0.2513  0.2909
    2OCB    H19  166   1.970   1.386   2.384  5.1469  1.1061 -1.3343
    2OCB    H20  167   2.123   1.397   2.295  1.9115 -0.0353  2.0456
    2OCB    H21  168   2.220   2.154   2.545  1.6578 -0.9923 -1.2584
    2OCB    H22  169   2.232   1.985   2.499 -2.2325 -0.4153  2.2376
    2OCB    H23  170   1.996   2.089   2.658  0.8104 -1.1268  0.2536
    2OCB    H24  171   2.018   1.926   2.595 -0.0570  1.1739  0.1169
    2OCB    H25  172   2.569   2.100   2.387 -0.0242  0.9894 -0.3766
    2OCB    H26  173   2.529   1.942   2.338  0.2239 -1.3075 -2.0774
    2OCB    H27  174   2.746   1.929   2.205  0.0574 -0.6360  0.9448
    2OCB    H28  175   2.774   2.089   2.263  1.2361 -0.1964  0.2483
    2OCB    H29  176   2.631   1.589   2.091 -0.2117 -0.9714  1.2006
    2OCB    H30  177   2.506   1.613   2.211  0.2846 -2.5232  0.1068
    2OCB    H31  178   2.453   1.393   2.206  2.4541  0.0227  3.5682
    2OCB    H32  179   2.498   1.371   2.032 -0.5762 -3.9918 -3.7862
    2OCB    H33  180   1.613   2.569   1.839  2.3683  1.8205 -0.7304
    2OCB    H34  181   1.673   2.207   2.044  0.2375  0.4987 -0.4914
    2OCB    H35  182   1.968   2.521   2.067 -2.2661  2.9733  0.5819
    2OCB    H36  183   2.404   2.614   1.506  1.8797  1.8079 -0.4145
    2OCB    H37  184   2.504   2.245   1.655  0.5796 -0.3111  0.9606
    2OCB    H38  185   2.338   2.535   1.925 -1.6914  2.0732 -1.4258
    2OCB    H39  186   2.145   1.796   1.199 -1.0897 -0.4922  2.1427
    2OCB    H40  187   2.139   1.585   1.567  1.5317  0.8534  1.2016
    2OCB    H41  188   2.377   1.935   1.530 -2.3634  2.5494  0.3550
    2OCB    H42  189   1.448   1.714   1.589 -0.0808  0.0978 -1.3583
    2OCB    H43  190   1.829   1.591   1.746  0.7736 -1.4162  2.0761
    2OCB    H44  191   1.574   1.835   1.983  1.0880  1.7367  0.4017
    2OCB    H45  192   2.732   2.247   1.432  0.8373  0.7501  1.5780
    2OCB    H46  193   2.546   1.905   1.312  0.5779  2.0056 -1.3048
    2OCB    H47  194   2.330   2.826   1.969 -0.5585 -1.0465  0.7065
    2OCB    H48  195   1.926   2.802   2.086  1.1307 -1.4656  5.6688
    2OCB    H49  196   1.683   1.312   1.526 -0.0381 -1.0127  0.0612
    2OCB    H50  197   2.075   1.352   1.340 -0.9041 -0.8225 -1.8537
    2OCB    H51  198   1.242   1.896   1.983 -1.8546  2.8184 -3.0798
    2OCB    H52  199   1.339   2.293   2.097 -3.0569  1.5608  2.0163
    2OCB    H53  200   1.556   2.045   1.655 -3.3581 -2.0296 -0.5973
    2OCB    H54  201   1.538   2.205   1.673  2.6863  0.5065 -1.7063
    2OCB    H55  202   1.666   2.131   1.775  0.4970 -1.8063 -1.3671
    2OCB    H56  203   1.927   2.629   1.659  2.9712  0.1821  1.0698
    2OCB    H57  204   2.095   2.678   1.603  1.1833  0.2591 -0.4304
    2OCB    H58  205   2.070   2.516   1.676 -0.8734  0.4439 -1.9420
    2OCB    H59  206   2.182   2.195   1.419 -1.0113  2.6271 -0.5286
    2OCB    H60  207   2.244   2.358   1.397 -0.7725  2.0991 -1.8046
    2OCB    H61  208   2.219   2.242   1.257  1.4420 -0.1800 -0.2713
    2OCB    H62  209   1.882   1.792   1.491 -0.3449  2.2749  0.2794
    2OCB    H63  210   1.850   1.760   1.309  2.1590  1.3033 -0.5137
    2OCB    H64  211   1.728   1.766   1.423 -1.4189  1.4685 -1.9061
    3Na+    Na+  212   2.597   1.465   2.463 -0.1645  0.2134  0.5614
    4Na+    Na+  213   2.212   1.428   0.665 -0.2882  0.2239  0.2432
    5Na+    Na+  214   1.145   3.933   1.112 -0.3613  0.3666  0.3178
    6Na+    Na+  215   2.179   1.404   2.764  0.2457 -0.5179  0.0349
    7Na+    Na+  216   2.208   3.194   2.655 -0.6134 -0.1312  0.5301
    8Na+    Na+  217   1.980   0.183   1.905  0.2712 -0.2923 -0.3354
    9Na+    Na+  218   1.673   3.607   0.564 -0.0449 -0.0274  0.3082
   10Na+    Na+  219   1.423   0.296   1.674 -0.0246  0.2870 -0.2928
   11Na+    Na+  220   0.602   1.159   0.259  0.8006  0.0606  0.3657
   4.02731   4.02731   4.02731
